<?xml version="1.0"?>
 <VTKFile type="ImageData" version="0.1" byte_order="LittleEndian">
   <ImageData WholeExtent="           0          29           0          29           0          29 " Origin="  -8.0000000000000000       -8.0000000000000000       -8.0000000000000000      " Spacing="  0.55172413793103448       0.55172413793103448       0.55172413793103448      ">
   <Piece Extent="           0          29           0          29           0          29 ">
   <PointData Scalars="scalars">
   <DataArray Name="vectors" type="Float64" NumberOfComponents="3" Format="ascii">
  0.235655E-12 -0.174371E-12 -0.275865E-14
  0.588539E-12 -0.387889E-12 -0.814451E-14
  0.132829E-11 -0.780103E-12 -0.207999E-13
  0.277864E-11 -0.148846E-11 -0.451242E-13
  0.560835E-11 -0.290204E-11 -0.793946E-13
  0.114318E-10 -0.613773E-11 -0.982678E-13
  0.240640E-10 -0.137955E-10 -0.234810E-13
  0.512521E-10 -0.304056E-10  0.299841E-12
  0.105659E-09 -0.612812E-10  0.107699E-11
  0.202837E-09 -0.108511E-09  0.243606E-11
  0.354219E-09 -0.164934E-09  0.421322E-11
  0.556265E-09 -0.210639E-09  0.580053E-11
  0.781695E-09 -0.218161E-09  0.628558E-11
  0.981144E-09 -0.167637E-09  0.495770E-11
  0.109929E-08 -0.632294E-10  0.189257E-11
  0.109929E-08  0.632294E-10 -0.189257E-11
  0.981144E-09  0.167637E-09 -0.495770E-11
  0.781695E-09  0.218161E-09 -0.628558E-11
  0.556265E-09  0.210639E-09 -0.580053E-11
  0.354219E-09  0.164934E-09 -0.421322E-11
  0.202837E-09  0.108511E-09 -0.243606E-11
  0.105659E-09  0.612812E-10 -0.107699E-11
  0.512521E-10  0.304056E-10 -0.299841E-12
  0.240640E-10  0.137955E-10  0.234810E-13
  0.114318E-10  0.613773E-11  0.982678E-13
  0.560835E-11  0.290204E-11  0.793946E-13
  0.277864E-11  0.148846E-11  0.451242E-13
  0.132829E-11  0.780103E-12  0.207999E-13
  0.588539E-12  0.387889E-12  0.814451E-14
  0.235655E-12  0.174371E-12  0.275865E-14
  0.804487E-12 -0.661403E-12 -0.888556E-14
  0.206685E-11 -0.152011E-11 -0.270177E-13
  0.482825E-11 -0.317903E-11 -0.713401E-13
  0.104554E-10 -0.624945E-11 -0.161840E-12
  0.215604E-10 -0.121288E-10 -0.306402E-12
  0.435781E-10 -0.242323E-10 -0.451133E-12
  0.876901E-10 -0.498548E-10 -0.390960E-12
  0.174454E-09 -0.101009E-09  0.305269E-12
  0.334970E-09 -0.190932E-09  0.223419E-11
  0.604517E-09 -0.323224E-09  0.580321E-11
  0.100516E-08 -0.476376E-09  0.106196E-10
  0.152138E-08 -0.595749E-09  0.150439E-10
  0.208265E-08 -0.608483E-09  0.165589E-10
  0.257048E-08 -0.463582E-09  0.131716E-10
  0.285644E-08 -0.174141E-09  0.504701E-11
  0.285644E-08  0.174141E-09 -0.504701E-11
  0.257048E-08  0.463582E-09 -0.131716E-10
  0.208265E-08  0.608483E-09 -0.165589E-10
  0.152138E-08  0.595749E-09 -0.150439E-10
  0.100516E-08  0.476376E-09 -0.106196E-10
  0.604517E-09  0.323224E-09 -0.580321E-11
  0.334970E-09  0.190932E-09 -0.223419E-11
  0.174454E-09  0.101009E-09 -0.305269E-12
  0.876901E-10  0.498548E-10  0.390960E-12
  0.435781E-10  0.242323E-10  0.451133E-12
  0.215604E-10  0.121288E-10  0.306402E-12
  0.104554E-10  0.624945E-11  0.161840E-12
  0.482825E-11  0.317903E-11  0.713401E-13
  0.206685E-11  0.152011E-11  0.270177E-13
  0.804487E-12  0.661403E-12  0.888556E-14
  0.238866E-11 -0.220212E-11 -0.242614E-13
  0.629059E-11 -0.519474E-11 -0.764675E-13
  0.151147E-10 -0.111760E-10 -0.209429E-12
  0.336446E-10 -0.224727E-10 -0.495092E-12
  0.707181E-10 -0.436647E-10 -0.991793E-12
  0.142955E-09 -0.844391E-10 -0.161612E-11
  0.280789E-09 -0.163502E-09 -0.190536E-11
  0.534435E-09 -0.309602E-09 -0.786564E-12
  0.972732E-09 -0.551728E-09  0.330417E-11
  0.166509E-08 -0.892455E-09  0.115464E-10
  0.264268E-08 -0.127230E-08  0.231657E-10
  0.385109E-08 -0.155408E-08  0.342365E-10
  0.512351E-08 -0.156206E-08  0.385324E-10
  0.620436E-08 -0.117827E-08  0.310141E-10
  0.682926E-08 -0.440501E-09  0.119458E-10
  0.682926E-08  0.440501E-09 -0.119458E-10
  0.620436E-08  0.117827E-08 -0.310141E-10
  0.512351E-08  0.156206E-08 -0.385324E-10
  0.385109E-08  0.155408E-08 -0.342365E-10
  0.264268E-08  0.127230E-08 -0.231657E-10
  0.166509E-08  0.892455E-09 -0.115464E-10
  0.972732E-09  0.551728E-09 -0.330417E-11
  0.534435E-09  0.309602E-09  0.786564E-12
  0.280789E-09  0.163502E-09  0.190536E-11
  0.142955E-09  0.844391E-10  0.161612E-11
  0.707181E-10  0.436647E-10  0.991793E-12
  0.336446E-10  0.224727E-10  0.495092E-12
  0.151147E-10  0.111760E-10  0.209429E-12
  0.629059E-11  0.519474E-11  0.764675E-13
  0.238866E-11  0.220212E-11  0.242614E-13
  0.617667E-11 -0.645515E-11 -0.549971E-13
  0.166339E-10 -0.155655E-10 -0.182291E-12
  0.409588E-10 -0.342607E-10 -0.521871E-12
  0.933397E-10 -0.701375E-10 -0.128712E-11
  0.199552E-09 -0.136694E-09 -0.270958E-11
  0.405041E-09 -0.258995E-09 -0.474972E-11
  0.785395E-09 -0.480574E-09 -0.651685E-11
  0.145267E-08 -0.862708E-09 -0.565279E-11
  0.254310E-08 -0.145990E-08  0.152062E-11
  0.417149E-08 -0.226106E-08  0.180840E-10
  0.635391E-08 -0.311652E-08  0.428925E-10
  0.893097E-08 -0.371331E-08  0.676574E-10
  0.115439E-07 -0.366830E-08  0.785864E-10
  0.137013E-07 -0.273690E-08  0.643024E-10
  0.149267E-07 -0.101779E-08  0.249447E-10
  0.149267E-07  0.101779E-08 -0.249447E-10
  0.137013E-07  0.273690E-08 -0.643024E-10
  0.115439E-07  0.366830E-08 -0.785864E-10
  0.893097E-08  0.371331E-08 -0.676574E-10
  0.635391E-08  0.311652E-08 -0.428925E-10
  0.417149E-08  0.226106E-08 -0.180840E-10
  0.254310E-08  0.145990E-08 -0.152062E-11
  0.145267E-08  0.862708E-09  0.565279E-11
  0.785395E-09  0.480574E-09  0.651685E-11
  0.405041E-09  0.258995E-09  0.474972E-11
  0.199552E-09  0.136694E-09  0.270958E-11
  0.933397E-10  0.701375E-10  0.128712E-11
  0.409588E-10  0.342607E-10  0.521871E-12
  0.166339E-10  0.155655E-10  0.182291E-12
  0.617667E-11  0.645515E-11  0.549971E-13
  0.139067E-10 -0.167118E-10 -0.988859E-13
  0.382626E-10 -0.411021E-10 -0.355978E-12
  0.963644E-10 -0.922778E-10 -0.108290E-11
  0.224286E-09 -0.191779E-09 -0.281391E-11
  0.487088E-09 -0.375126E-09 -0.623586E-11
  0.994564E-09 -0.701016E-09 -0.116230E-10
  0.191592E-08 -0.126019E-08 -0.175848E-10
  0.347740E-08 -0.216695E-08 -0.195867E-10
  0.591752E-08 -0.350461E-08 -0.992844E-11
  0.938460E-08 -0.521061E-08  0.185749E-10
  0.138014E-07 -0.694581E-08  0.650317E-10
  0.187698E-07 -0.806679E-08  0.114236E-09
  0.235940E-07 -0.782448E-08  0.139186E-09
  0.274415E-07 -0.576977E-08  0.116561E-09
  0.295780E-07 -0.213342E-08  0.456647E-10
  0.295780E-07  0.213342E-08 -0.456647E-10
  0.274415E-07  0.576977E-08 -0.116561E-09
  0.235940E-07  0.782448E-08 -0.139186E-09
  0.187698E-07  0.806679E-08 -0.114236E-09
  0.138014E-07  0.694581E-08 -0.650317E-10
  0.938460E-08  0.521061E-08 -0.185749E-10
  0.591752E-08  0.350461E-08  0.992844E-11
  0.347740E-08  0.216695E-08  0.195867E-10
  0.191592E-08  0.126019E-08  0.175848E-10
  0.994564E-09  0.701016E-09  0.116230E-10
  0.487088E-09  0.375126E-09  0.623586E-11
  0.224286E-09  0.191779E-09  0.281391E-11
  0.963644E-10  0.922778E-10  0.108290E-11
  0.382626E-10  0.411021E-10  0.355978E-12
  0.139067E-10  0.167118E-10  0.988859E-13
  0.272295E-10 -0.383209E-10 -0.122639E-12
  0.765495E-10 -0.960694E-10 -0.529475E-12
  0.197079E-09 -0.219665E-09 -0.179730E-11
  0.467995E-09 -0.462828E-09 -0.504782E-11
  0.103181E-08 -0.909042E-09 -0.119217E-10
  0.212174E-08 -0.168197E-08 -0.236446E-10
  0.407577E-08 -0.294905E-08 -0.386501E-10
  0.730353E-08 -0.489083E-08 -0.494380E-10
  0.121683E-07 -0.759454E-08 -0.418004E-10
  0.187845E-07 -0.108593E-07 -0.913438E-12
  0.268124E-07 -0.139975E-07  0.748167E-10
  0.353949E-07 -0.158293E-07  0.161102E-09
  0.433266E-07 -0.150575E-07  0.211221E-09
  0.493886E-07 -0.109637E-07  0.183155E-09
  0.526567E-07 -0.402877E-08  0.727507E-10
  0.526567E-07  0.402877E-08 -0.727507E-10
  0.493886E-07  0.109637E-07 -0.183155E-09
  0.433266E-07  0.150575E-07 -0.211221E-09
  0.353949E-07  0.158293E-07 -0.161102E-09
  0.268124E-07  0.139975E-07 -0.748167E-10
  0.187845E-07  0.108593E-07  0.913438E-12
  0.121683E-07  0.759454E-08  0.418004E-10
  0.730353E-08  0.489083E-08  0.494380E-10
  0.407577E-08  0.294905E-08  0.386501E-10
  0.212174E-08  0.168197E-08  0.236446E-10
  0.103181E-08  0.909042E-09  0.119217E-10
  0.467995E-09  0.462828E-09  0.504782E-11
  0.197079E-09  0.219665E-09  0.179730E-11
  0.765495E-10  0.960694E-10  0.529475E-12
  0.272295E-10  0.383209E-10  0.122639E-12
  0.462302E-10 -0.780572E-10 -0.287895E-13
  0.133014E-09 -0.199559E-09 -0.456146E-12
  0.350323E-09 -0.464660E-09 -0.212537E-11
  0.848847E-09 -0.992334E-09 -0.699339E-11
  0.190008E-08 -0.195854E-08 -0.182894E-10
  0.393857E-08 -0.359754E-08 -0.392674E-10
  0.756252E-08 -0.617892E-08 -0.693018E-10
  0.134314E-07 -0.992709E-08 -0.979603E-10
  0.220140E-07 -0.148411E-07 -0.102511E-09
  0.332368E-07 -0.204182E-07 -0.563513E-10
  0.462244E-07 -0.254164E-07  0.491085E-10
  0.593783E-07 -0.279289E-07  0.182046E-09
  0.708508E-07 -0.260002E-07  0.270253E-09
  0.791489E-07 -0.186633E-07  0.245981E-09
  0.834422E-07 -0.680984E-08  0.996376E-10
  0.834422E-07  0.680984E-08 -0.996376E-10
  0.791489E-07  0.186633E-07 -0.245981E-09
  0.708508E-07  0.260002E-07 -0.270253E-09
  0.593783E-07  0.279289E-07 -0.182046E-09
  0.462244E-07  0.254164E-07 -0.491085E-10
  0.332368E-07  0.204182E-07  0.563513E-10
  0.220140E-07  0.148411E-07  0.102511E-09
  0.134314E-07  0.992709E-08  0.979603E-10
  0.756252E-08  0.617892E-08  0.693018E-10
  0.393857E-08  0.359754E-08  0.392674E-10
  0.190008E-08  0.195854E-08  0.182894E-10
  0.848847E-09  0.992334E-09  0.699339E-11
  0.350323E-09  0.464660E-09  0.212537E-11
  0.133014E-09  0.199559E-09  0.456146E-12
  0.462302E-10  0.780572E-10  0.287895E-13
  0.677605E-10 -0.141706E-09  0.355544E-12
  0.200175E-09 -0.370024E-09  0.349079E-12
  0.540491E-09 -0.878215E-09 -0.869010E-12
  0.133799E-08 -0.190236E-08 -0.605677E-11
  0.304328E-08 -0.377728E-08 -0.204555E-10
  0.636551E-08 -0.690341E-08 -0.505909E-10
  0.122384E-07 -0.116520E-07 -0.988711E-10
  0.215978E-07 -0.181901E-07 -0.154082E-09
  0.349301E-07 -0.262188E-07 -0.185093E-09
  0.517367E-07 -0.346745E-07 -0.150021E-09
  0.702792E-07 -0.415632E-07 -0.290419E-10
  0.879639E-07 -0.442092E-07  0.146610E-09
  0.102316E-06 -0.401283E-07  0.281594E-09
  0.111923E-06 -0.283170E-07  0.277426E-09
  0.116581E-06 -0.102441E-07  0.115660E-09
  0.116581E-06  0.102441E-07 -0.115660E-09
  0.111923E-06  0.283170E-07 -0.277426E-09
  0.102316E-06  0.401283E-07 -0.281594E-09
  0.879639E-07  0.442092E-07 -0.146610E-09
  0.702792E-07  0.415632E-07  0.290419E-10
  0.517367E-07  0.346745E-07  0.150021E-09
  0.349301E-07  0.262188E-07  0.185093E-09
  0.215978E-07  0.181901E-07  0.154082E-09
  0.122384E-07  0.116520E-07  0.988711E-10
  0.636551E-08  0.690341E-08  0.505909E-10
  0.304328E-08  0.377728E-08  0.204555E-10
  0.133799E-08  0.190236E-08  0.605677E-11
  0.540491E-09  0.878215E-09  0.869010E-12
  0.200175E-09  0.370024E-09 -0.349079E-12
  0.677605E-10  0.141706E-09 -0.355544E-12
  0.851204E-10 -0.230221E-09  0.122282E-11
  0.259681E-09 -0.615605E-09  0.247919E-11
  0.721761E-09 -0.149202E-08  0.358231E-11
  0.183019E-08 -0.328278E-08  0.161298E-11
  0.423700E-08 -0.656755E-08 -0.103328E-10
  0.895477E-08 -0.119688E-07 -0.428103E-10
  0.172640E-07 -0.199082E-07 -0.103888E-09
  0.303257E-07 -0.302737E-07 -0.185930E-09
  0.484877E-07 -0.421046E-07 -0.254530E-09
  0.705729E-07 -0.534268E-07 -0.253128E-09
  0.937289E-07 -0.613884E-07 -0.141228E-09
  0.114291E-06 -0.628197E-07  0.518169E-10
  0.129409E-06 -0.552542E-07  0.222921E-09
  0.138315E-06 -0.381425E-07  0.253639E-09
  0.142101E-06 -0.136440E-07  0.111609E-09
  0.142101E-06  0.136440E-07 -0.111609E-09
  0.138315E-06  0.381425E-07 -0.253639E-09
  0.129409E-06  0.552542E-07 -0.222921E-09
  0.114291E-06  0.628197E-07 -0.518169E-10
  0.937289E-07  0.613884E-07  0.141228E-09
  0.705729E-07  0.534268E-07  0.253128E-09
  0.484877E-07  0.421046E-07  0.254530E-09
  0.303257E-07  0.302737E-07  0.185930E-09
  0.172640E-07  0.199082E-07  0.103888E-09
  0.895477E-08  0.119688E-07  0.428103E-10
  0.423700E-08  0.656755E-08  0.103328E-10
  0.183019E-08  0.328278E-08 -0.161298E-11
  0.721761E-09  0.149202E-08 -0.358231E-11
  0.259681E-09  0.615605E-09 -0.247919E-11
  0.851204E-10  0.230221E-09 -0.122282E-11
  0.905933E-10 -0.336605E-09  0.263408E-11
  0.288318E-09 -0.924849E-09  0.621352E-11
  0.830600E-09 -0.229437E-08  0.122136E-10
  0.216683E-08 -0.513619E-08  0.188851E-10
  0.511943E-08 -0.103709E-07  0.191562E-10
  0.109518E-07 -0.188882E-07 -0.932502E-12
  0.212015E-07 -0.310471E-07 -0.570431E-10
  0.371160E-07 -0.461112E-07 -0.151254E-09
  0.587293E-07 -0.619471E-07 -0.253204E-09
  0.840424E-07 -0.752734E-07 -0.300619E-09
  0.109083E-06 -0.824434E-07 -0.233912E-09
  0.129344E-06 -0.804661E-07 -0.637133E-10
  0.142061E-06 -0.679166E-07  0.116131E-09
  0.147698E-06 -0.454820E-07  0.180959E-09
  0.149177E-06 -0.160109E-07  0.843756E-10
  0.149177E-06  0.160109E-07 -0.843756E-10
  0.147698E-06  0.454820E-07 -0.180959E-09
  0.142061E-06  0.679166E-07 -0.116131E-09
  0.129344E-06  0.804661E-07  0.637133E-10
  0.109083E-06  0.824434E-07  0.233912E-09
  0.840424E-07  0.752734E-07  0.300619E-09
  0.587293E-07  0.619471E-07  0.253204E-09
  0.371160E-07  0.461112E-07  0.151254E-09
  0.212015E-07  0.310471E-07  0.570431E-10
  0.109518E-07  0.188882E-07  0.932502E-12
  0.511943E-08  0.103709E-07 -0.191562E-10
  0.216683E-08  0.513619E-08 -0.188851E-10
  0.830600E-09  0.229437E-08 -0.122136E-10
  0.288318E-09  0.924849E-09 -0.621352E-11
  0.905933E-10  0.336605E-09 -0.263408E-11
  0.801844E-10 -0.446378E-09  0.433600E-11
  0.271085E-09 -0.126485E-08  0.109546E-10
  0.818553E-09 -0.321890E-08  0.238557E-10
  0.221139E-08 -0.734220E-08  0.439841E-10
  0.535219E-08 -0.149846E-07  0.663549E-10
  0.116151E-07 -0.273302E-07  0.758812E-10
  0.226109E-07 -0.445234E-07  0.496422E-10
  0.394850E-07 -0.647913E-07 -0.281208E-10
  0.618562E-07 -0.842692E-07 -0.141900E-09
  0.869953E-07 -0.979970E-07 -0.235361E-09
  0.110157E-06 -0.101765E-06 -0.237495E-09
  0.126518E-06 -0.937348E-07 -0.133062E-09
  0.133915E-06 -0.748507E-07  0.129951E-10
  0.134333E-06 -0.479611E-07  0.912506E-10
  0.132563E-06 -0.164730E-07  0.504182E-10
  0.132563E-06  0.164730E-07 -0.504182E-10
  0.134333E-06  0.479611E-07 -0.912506E-10
  0.133915E-06  0.748507E-07 -0.129951E-10
  0.126518E-06  0.937348E-07  0.133062E-09
  0.110157E-06  0.101765E-06  0.237495E-09
  0.869953E-07  0.979970E-07  0.235361E-09
  0.618562E-07  0.842692E-07  0.141900E-09
  0.394850E-07  0.647913E-07  0.281208E-10
  0.226109E-07  0.445234E-07 -0.496422E-10
  0.116151E-07  0.273302E-07 -0.758812E-10
  0.535219E-08  0.149846E-07 -0.663549E-10
  0.221139E-08  0.734220E-08 -0.439841E-10
  0.818553E-09  0.321890E-08 -0.238557E-10
  0.271085E-09  0.126485E-08 -0.109546E-10
  0.801844E-10  0.446378E-09 -0.433600E-11
  0.572327E-10 -0.542759E-09  0.570374E-11
  0.212563E-09 -0.159036E-08  0.149859E-10
  0.684579E-09 -0.415627E-08  0.343601E-10
  0.193247E-08 -0.966368E-08  0.681027E-10
  0.481320E-08 -0.199476E-07  0.115131E-09
  0.106217E-07 -0.364924E-07  0.162156E-09
  0.208198E-07 -0.590868E-07  0.182609E-09
  0.362933E-07 -0.845800E-07  0.147322E-09
  0.562966E-07 -0.106933E-06  0.520904E-10
  0.777452E-07 -0.119270E-06 -0.642414E-10
  0.957769E-07 -0.117137E-06 -0.132394E-09
  0.105929E-06 -0.100797E-06 -0.114175E-09
  0.106943E-06 -0.747764E-07 -0.360287E-10
  0.102062E-06 -0.448602E-07  0.249462E-10
  0.972765E-07 -0.148044E-07  0.206653E-10
  0.972765E-07  0.148044E-07 -0.206653E-10
  0.102062E-06  0.448602E-07 -0.249462E-10
  0.106943E-06  0.747764E-07  0.360287E-10
  0.105929E-06  0.100797E-06  0.114175E-09
  0.957769E-07  0.117137E-06  0.132394E-09
  0.777452E-07  0.119270E-06  0.642414E-10
  0.562966E-07  0.106933E-06 -0.520904E-10
  0.362933E-07  0.845800E-07 -0.147322E-09
  0.208198E-07  0.590868E-07 -0.182609E-09
  0.106217E-07  0.364924E-07 -0.162156E-09
  0.481320E-08  0.199476E-07 -0.115131E-09
  0.193247E-08  0.966368E-08 -0.681027E-10
  0.684579E-09  0.415627E-08 -0.343601E-10
  0.212563E-09  0.159036E-08 -0.149859E-10
  0.572327E-10  0.542759E-09 -0.570374E-11
  0.312708E-10 -0.613833E-09  0.595139E-11
  0.135923E-09 -0.185951E-08  0.160192E-10
  0.478261E-09 -0.498352E-08  0.378348E-10
  0.142424E-08 -0.117941E-07  0.778974E-10
  0.366458E-08 -0.246068E-07  0.138738E-09
  0.823679E-08 -0.451848E-07  0.211160E-09
  0.162704E-07 -0.728950E-07  0.270382E-09
  0.283292E-07 -0.103088E-06  0.281290E-09
  0.435235E-07 -0.127431E-06  0.224429E-09
  0.589938E-07 -0.137148E-06  0.115398E-09
  0.705484E-07 -0.127804E-06  0.130292E-10
  0.746761E-07 -0.102290E-06 -0.363379E-10
  0.709630E-07 -0.692734E-07 -0.275186E-10
  0.630472E-07 -0.377636E-07 -0.994824E-12
  0.568491E-07 -0.116624E-07  0.492066E-11
  0.568491E-07  0.116624E-07 -0.492066E-11
  0.630472E-07  0.377636E-07  0.994824E-12
  0.709630E-07  0.692734E-07  0.275186E-10
  0.746761E-07  0.102290E-06  0.363379E-10
  0.705484E-07  0.127804E-06 -0.130292E-10
  0.589938E-07  0.137148E-06 -0.115398E-09
  0.435235E-07  0.127431E-06 -0.224429E-09
  0.283292E-07  0.103088E-06 -0.281290E-09
  0.162704E-07  0.728950E-07 -0.270382E-09
  0.823679E-08  0.451848E-07 -0.211160E-09
  0.366458E-08  0.246068E-07 -0.138738E-09
  0.142424E-08  0.117941E-07 -0.778974E-10
  0.478261E-09  0.498352E-08 -0.378348E-10
  0.135923E-09  0.185951E-08 -0.160192E-10
  0.312708E-10  0.613833E-09 -0.595139E-11
  0.119710E-10 -0.656756E-09  0.456908E-11
  0.676739E-10 -0.204585E-08  0.124772E-10
  0.265544E-09 -0.559456E-08  0.299740E-10
  0.836872E-09 -0.134246E-07  0.629940E-10
  0.222276E-08 -0.282452E-07  0.115279E-09
  0.508264E-08 -0.520409E-07  0.181850E-09
  0.101130E-07 -0.838032E-07  0.245819E-09
  0.175957E-07 -0.117596E-06  0.276198E-09
  0.268115E-07 -0.143142E-06  0.253678E-09
  0.357369E-07 -0.150105E-06  0.180937E-09
  0.415509E-07 -0.134204E-06  0.907931E-10
  0.420559E-07 -0.100743E-06  0.253854E-10
  0.373025E-07 -0.620630E-07 -0.106397E-11
  0.301537E-07 -0.299617E-07 -0.210122E-11
  0.249636E-07 -0.835511E-08  0.600929E-12
  0.249636E-07  0.835511E-08 -0.600929E-12
  0.301537E-07  0.299617E-07  0.210122E-11
  0.373025E-07  0.620630E-07  0.106397E-11
  0.420559E-07  0.100743E-06 -0.253854E-10
  0.415509E-07  0.134204E-06 -0.907931E-10
  0.357369E-07  0.150105E-06 -0.180937E-09
  0.268115E-07  0.143142E-06 -0.253678E-09
  0.175957E-07  0.117596E-06 -0.276198E-09
  0.101130E-07  0.838032E-07 -0.245819E-09
  0.508264E-08  0.520409E-07 -0.181850E-09
  0.222276E-08  0.282452E-07 -0.115279E-09
  0.836872E-09  0.134246E-07 -0.629940E-10
  0.265544E-09  0.559456E-08 -0.299740E-10
  0.676739E-10  0.204585E-08 -0.124772E-10
  0.119710E-10  0.656756E-09 -0.456908E-11
  0.247858E-11 -0.675773E-09  0.171992E-11
  0.192557E-10 -0.213952E-08  0.472888E-11
  0.826347E-10 -0.591744E-08  0.114497E-10
  0.271128E-09 -0.143083E-07  0.243100E-10
  0.735326E-09 -0.302446E-07  0.449687E-10
  0.169993E-08 -0.558354E-07  0.720164E-10
  0.339813E-08 -0.898519E-07  0.100330E-09
  0.591015E-08 -0.125612E-06  0.115078E-09
  0.896086E-08 -0.151717E-06  0.110673E-09
  0.118199E-07 -0.156946E-06  0.854610E-10
  0.134945E-07 -0.137143E-06  0.500953E-10
  0.132427E-07 -0.990541E-07  0.200979E-10
  0.111452E-07 -0.571884E-07  0.503741E-11
  0.828648E-08 -0.249611E-07  0.495099E-12
  0.626851E-08 -0.626759E-08  0.637501E-13
  0.626851E-08  0.626759E-08 -0.637501E-13
  0.828648E-08  0.249611E-07 -0.495099E-12
  0.111452E-07  0.571884E-07 -0.503741E-11
  0.132427E-07  0.990541E-07 -0.200979E-10
  0.134945E-07  0.137143E-06 -0.500953E-10
  0.118199E-07  0.156946E-06 -0.854610E-10
  0.896086E-08  0.151717E-06 -0.110673E-09
  0.591015E-08  0.125612E-06 -0.115078E-09
  0.339813E-08  0.898519E-07 -0.100330E-09
  0.169993E-08  0.558354E-07 -0.720164E-10
  0.735326E-09  0.302446E-07 -0.449687E-10
  0.271128E-09  0.143083E-07 -0.243100E-10
  0.826347E-10  0.591744E-08 -0.114497E-10
  0.192557E-10  0.213952E-08 -0.472888E-11
  0.247858E-11  0.675773E-09 -0.171992E-11
 -0.247858E-11 -0.675773E-09 -0.171992E-11
 -0.192557E-10 -0.213952E-08 -0.472888E-11
 -0.826347E-10 -0.591744E-08 -0.114497E-10
 -0.271128E-09 -0.143083E-07 -0.243100E-10
 -0.735326E-09 -0.302446E-07 -0.449687E-10
 -0.169993E-08 -0.558354E-07 -0.720164E-10
 -0.339813E-08 -0.898519E-07 -0.100330E-09
 -0.591015E-08 -0.125612E-06 -0.115078E-09
 -0.896086E-08 -0.151717E-06 -0.110673E-09
 -0.118199E-07 -0.156946E-06 -0.854610E-10
 -0.134945E-07 -0.137143E-06 -0.500953E-10
 -0.132427E-07 -0.990541E-07 -0.200979E-10
 -0.111452E-07 -0.571884E-07 -0.503741E-11
 -0.828648E-08 -0.249611E-07 -0.495099E-12
 -0.626851E-08 -0.626759E-08 -0.637501E-13
 -0.626851E-08  0.626759E-08  0.637501E-13
 -0.828648E-08  0.249611E-07  0.495099E-12
 -0.111452E-07  0.571884E-07  0.503741E-11
 -0.132427E-07  0.990541E-07  0.200979E-10
 -0.134945E-07  0.137143E-06  0.500953E-10
 -0.118199E-07  0.156946E-06  0.854610E-10
 -0.896086E-08  0.151717E-06  0.110673E-09
 -0.591015E-08  0.125612E-06  0.115078E-09
 -0.339813E-08  0.898519E-07  0.100330E-09
 -0.169993E-08  0.558354E-07  0.720164E-10
 -0.735326E-09  0.302446E-07  0.449687E-10
 -0.271128E-09  0.143083E-07  0.243100E-10
 -0.826347E-10  0.591744E-08  0.114497E-10
 -0.192557E-10  0.213952E-08  0.472888E-11
 -0.247858E-11  0.675773E-09  0.171992E-11
 -0.119710E-10 -0.656756E-09 -0.456908E-11
 -0.676739E-10 -0.204585E-08 -0.124772E-10
 -0.265544E-09 -0.559456E-08 -0.299740E-10
 -0.836872E-09 -0.134246E-07 -0.629940E-10
 -0.222276E-08 -0.282452E-07 -0.115279E-09
 -0.508264E-08 -0.520409E-07 -0.181850E-09
 -0.101130E-07 -0.838032E-07 -0.245819E-09
 -0.175957E-07 -0.117596E-06 -0.276198E-09
 -0.268115E-07 -0.143142E-06 -0.253678E-09
 -0.357369E-07 -0.150105E-06 -0.180937E-09
 -0.415509E-07 -0.134204E-06 -0.907931E-10
 -0.420559E-07 -0.100743E-06 -0.253854E-10
 -0.373025E-07 -0.620630E-07  0.106397E-11
 -0.301537E-07 -0.299617E-07  0.210122E-11
 -0.249636E-07 -0.835511E-08 -0.600929E-12
 -0.249636E-07  0.835511E-08  0.600929E-12
 -0.301537E-07  0.299617E-07 -0.210122E-11
 -0.373025E-07  0.620630E-07 -0.106397E-11
 -0.420559E-07  0.100743E-06  0.253854E-10
 -0.415509E-07  0.134204E-06  0.907931E-10
 -0.357369E-07  0.150105E-06  0.180937E-09
 -0.268115E-07  0.143142E-06  0.253678E-09
 -0.175957E-07  0.117596E-06  0.276198E-09
 -0.101130E-07  0.838032E-07  0.245819E-09
 -0.508264E-08  0.520409E-07  0.181850E-09
 -0.222276E-08  0.282452E-07  0.115279E-09
 -0.836872E-09  0.134246E-07  0.629940E-10
 -0.265544E-09  0.559456E-08  0.299740E-10
 -0.676739E-10  0.204585E-08  0.124772E-10
 -0.119710E-10  0.656756E-09  0.456908E-11
 -0.312708E-10 -0.613833E-09 -0.595139E-11
 -0.135923E-09 -0.185951E-08 -0.160192E-10
 -0.478261E-09 -0.498352E-08 -0.378348E-10
 -0.142424E-08 -0.117941E-07 -0.778974E-10
 -0.366458E-08 -0.246068E-07 -0.138738E-09
 -0.823679E-08 -0.451848E-07 -0.211160E-09
 -0.162704E-07 -0.728950E-07 -0.270382E-09
 -0.283292E-07 -0.103088E-06 -0.281290E-09
 -0.435235E-07 -0.127431E-06 -0.224429E-09
 -0.589938E-07 -0.137148E-06 -0.115398E-09
 -0.705484E-07 -0.127804E-06 -0.130292E-10
 -0.746761E-07 -0.102290E-06  0.363379E-10
 -0.709630E-07 -0.692734E-07  0.275186E-10
 -0.630472E-07 -0.377636E-07  0.994824E-12
 -0.568491E-07 -0.116624E-07 -0.492066E-11
 -0.568491E-07  0.116624E-07  0.492066E-11
 -0.630472E-07  0.377636E-07 -0.994824E-12
 -0.709630E-07  0.692734E-07 -0.275186E-10
 -0.746761E-07  0.102290E-06 -0.363379E-10
 -0.705484E-07  0.127804E-06  0.130292E-10
 -0.589938E-07  0.137148E-06  0.115398E-09
 -0.435235E-07  0.127431E-06  0.224429E-09
 -0.283292E-07  0.103088E-06  0.281290E-09
 -0.162704E-07  0.728950E-07  0.270382E-09
 -0.823679E-08  0.451848E-07  0.211160E-09
 -0.366458E-08  0.246068E-07  0.138738E-09
 -0.142424E-08  0.117941E-07  0.778974E-10
 -0.478261E-09  0.498352E-08  0.378348E-10
 -0.135923E-09  0.185951E-08  0.160192E-10
 -0.312708E-10  0.613833E-09  0.595139E-11
 -0.572327E-10 -0.542759E-09 -0.570374E-11
 -0.212563E-09 -0.159036E-08 -0.149859E-10
 -0.684579E-09 -0.415627E-08 -0.343601E-10
 -0.193247E-08 -0.966368E-08 -0.681027E-10
 -0.481320E-08 -0.199476E-07 -0.115131E-09
 -0.106217E-07 -0.364924E-07 -0.162156E-09
 -0.208198E-07 -0.590868E-07 -0.182609E-09
 -0.362933E-07 -0.845800E-07 -0.147322E-09
 -0.562966E-07 -0.106933E-06 -0.520904E-10
 -0.777452E-07 -0.119270E-06  0.642414E-10
 -0.957769E-07 -0.117137E-06  0.132394E-09
 -0.105929E-06 -0.100797E-06  0.114175E-09
 -0.106943E-06 -0.747764E-07  0.360287E-10
 -0.102062E-06 -0.448602E-07 -0.249462E-10
 -0.972765E-07 -0.148044E-07 -0.206653E-10
 -0.972765E-07  0.148044E-07  0.206653E-10
 -0.102062E-06  0.448602E-07  0.249462E-10
 -0.106943E-06  0.747764E-07 -0.360287E-10
 -0.105929E-06  0.100797E-06 -0.114175E-09
 -0.957769E-07  0.117137E-06 -0.132394E-09
 -0.777452E-07  0.119270E-06 -0.642414E-10
 -0.562966E-07  0.106933E-06  0.520904E-10
 -0.362933E-07  0.845800E-07  0.147322E-09
 -0.208198E-07  0.590868E-07  0.182609E-09
 -0.106217E-07  0.364924E-07  0.162156E-09
 -0.481320E-08  0.199476E-07  0.115131E-09
 -0.193247E-08  0.966368E-08  0.681027E-10
 -0.684579E-09  0.415627E-08  0.343601E-10
 -0.212563E-09  0.159036E-08  0.149859E-10
 -0.572327E-10  0.542759E-09  0.570374E-11
 -0.801844E-10 -0.446378E-09 -0.433600E-11
 -0.271085E-09 -0.126485E-08 -0.109546E-10
 -0.818553E-09 -0.321890E-08 -0.238557E-10
 -0.221139E-08 -0.734220E-08 -0.439841E-10
 -0.535219E-08 -0.149846E-07 -0.663549E-10
 -0.116151E-07 -0.273302E-07 -0.758812E-10
 -0.226109E-07 -0.445234E-07 -0.496422E-10
 -0.394850E-07 -0.647913E-07  0.281208E-10
 -0.618562E-07 -0.842692E-07  0.141900E-09
 -0.869953E-07 -0.979970E-07  0.235361E-09
 -0.110157E-06 -0.101765E-06  0.237495E-09
 -0.126518E-06 -0.937348E-07  0.133062E-09
 -0.133915E-06 -0.748507E-07 -0.129951E-10
 -0.134333E-06 -0.479611E-07 -0.912506E-10
 -0.132563E-06 -0.164730E-07 -0.504182E-10
 -0.132563E-06  0.164730E-07  0.504182E-10
 -0.134333E-06  0.479611E-07  0.912506E-10
 -0.133915E-06  0.748507E-07  0.129951E-10
 -0.126518E-06  0.937348E-07 -0.133062E-09
 -0.110157E-06  0.101765E-06 -0.237495E-09
 -0.869953E-07  0.979970E-07 -0.235361E-09
 -0.618562E-07  0.842692E-07 -0.141900E-09
 -0.394850E-07  0.647913E-07 -0.281208E-10
 -0.226109E-07  0.445234E-07  0.496422E-10
 -0.116151E-07  0.273302E-07  0.758812E-10
 -0.535219E-08  0.149846E-07  0.663549E-10
 -0.221139E-08  0.734220E-08  0.439841E-10
 -0.818553E-09  0.321890E-08  0.238557E-10
 -0.271085E-09  0.126485E-08  0.109546E-10
 -0.801844E-10  0.446378E-09  0.433600E-11
 -0.905933E-10 -0.336605E-09 -0.263408E-11
 -0.288318E-09 -0.924849E-09 -0.621352E-11
 -0.830600E-09 -0.229437E-08 -0.122136E-10
 -0.216683E-08 -0.513619E-08 -0.188851E-10
 -0.511943E-08 -0.103709E-07 -0.191562E-10
 -0.109518E-07 -0.188882E-07  0.932502E-12
 -0.212015E-07 -0.310471E-07  0.570431E-10
 -0.371160E-07 -0.461112E-07  0.151254E-09
 -0.587293E-07 -0.619471E-07  0.253204E-09
 -0.840424E-07 -0.752734E-07  0.300619E-09
 -0.109083E-06 -0.824434E-07  0.233912E-09
 -0.129344E-06 -0.804661E-07  0.637133E-10
 -0.142061E-06 -0.679166E-07 -0.116131E-09
 -0.147698E-06 -0.454820E-07 -0.180959E-09
 -0.149177E-06 -0.160109E-07 -0.843756E-10
 -0.149177E-06  0.160109E-07  0.843756E-10
 -0.147698E-06  0.454820E-07  0.180959E-09
 -0.142061E-06  0.679166E-07  0.116131E-09
 -0.129344E-06  0.804661E-07 -0.637133E-10
 -0.109083E-06  0.824434E-07 -0.233912E-09
 -0.840424E-07  0.752734E-07 -0.300619E-09
 -0.587293E-07  0.619471E-07 -0.253204E-09
 -0.371160E-07  0.461112E-07 -0.151254E-09
 -0.212015E-07  0.310471E-07 -0.570431E-10
 -0.109518E-07  0.188882E-07 -0.932502E-12
 -0.511943E-08  0.103709E-07  0.191562E-10
 -0.216683E-08  0.513619E-08  0.188851E-10
 -0.830600E-09  0.229437E-08  0.122136E-10
 -0.288318E-09  0.924849E-09  0.621352E-11
 -0.905933E-10  0.336605E-09  0.263408E-11
 -0.851204E-10 -0.230221E-09 -0.122282E-11
 -0.259681E-09 -0.615605E-09 -0.247919E-11
 -0.721761E-09 -0.149202E-08 -0.358231E-11
 -0.183019E-08 -0.328278E-08 -0.161298E-11
 -0.423700E-08 -0.656755E-08  0.103328E-10
 -0.895477E-08 -0.119688E-07  0.428103E-10
 -0.172640E-07 -0.199082E-07  0.103888E-09
 -0.303257E-07 -0.302737E-07  0.185930E-09
 -0.484877E-07 -0.421046E-07  0.254530E-09
 -0.705729E-07 -0.534268E-07  0.253128E-09
 -0.937289E-07 -0.613884E-07  0.141228E-09
 -0.114291E-06 -0.628197E-07 -0.518169E-10
 -0.129409E-06 -0.552542E-07 -0.222921E-09
 -0.138315E-06 -0.381425E-07 -0.253639E-09
 -0.142101E-06 -0.136440E-07 -0.111609E-09
 -0.142101E-06  0.136440E-07  0.111609E-09
 -0.138315E-06  0.381425E-07  0.253639E-09
 -0.129409E-06  0.552542E-07  0.222921E-09
 -0.114291E-06  0.628197E-07  0.518169E-10
 -0.937289E-07  0.613884E-07 -0.141228E-09
 -0.705729E-07  0.534268E-07 -0.253128E-09
 -0.484877E-07  0.421046E-07 -0.254530E-09
 -0.303257E-07  0.302737E-07 -0.185930E-09
 -0.172640E-07  0.199082E-07 -0.103888E-09
 -0.895477E-08  0.119688E-07 -0.428103E-10
 -0.423700E-08  0.656755E-08 -0.103328E-10
 -0.183019E-08  0.328278E-08  0.161298E-11
 -0.721761E-09  0.149202E-08  0.358231E-11
 -0.259681E-09  0.615605E-09  0.247919E-11
 -0.851204E-10  0.230221E-09  0.122282E-11
 -0.677605E-10 -0.141706E-09 -0.355544E-12
 -0.200175E-09 -0.370024E-09 -0.349079E-12
 -0.540491E-09 -0.878215E-09  0.869010E-12
 -0.133799E-08 -0.190236E-08  0.605677E-11
 -0.304328E-08 -0.377728E-08  0.204555E-10
 -0.636551E-08 -0.690341E-08  0.505909E-10
 -0.122384E-07 -0.116520E-07  0.988711E-10
 -0.215978E-07 -0.181901E-07  0.154082E-09
 -0.349301E-07 -0.262188E-07  0.185093E-09
 -0.517367E-07 -0.346745E-07  0.150021E-09
 -0.702792E-07 -0.415632E-07  0.290419E-10
 -0.879639E-07 -0.442092E-07 -0.146610E-09
 -0.102316E-06 -0.401283E-07 -0.281594E-09
 -0.111923E-06 -0.283170E-07 -0.277426E-09
 -0.116581E-06 -0.102441E-07 -0.115660E-09
 -0.116581E-06  0.102441E-07  0.115660E-09
 -0.111923E-06  0.283170E-07  0.277426E-09
 -0.102316E-06  0.401283E-07  0.281594E-09
 -0.879639E-07  0.442092E-07  0.146610E-09
 -0.702792E-07  0.415632E-07 -0.290419E-10
 -0.517367E-07  0.346745E-07 -0.150021E-09
 -0.349301E-07  0.262188E-07 -0.185093E-09
 -0.215978E-07  0.181901E-07 -0.154082E-09
 -0.122384E-07  0.116520E-07 -0.988711E-10