<?xml version="1.0"?>
 <VTKFile type="ImageData" version="0.1" byte_order="LittleEndian">
   <ImageData WholeExtent="           0           9           0           0           0           0 " Origin="  -6.4304492561200002       -2.6202723508400001        2.6784162599100001      " Spacing="   9.8272041252222275E-002                  Infinity  -8.6340605800000247E-002 ">
   <Piece Extent="           0           9           0           0           0           0 ">
   <PointData Scalars="scalars">
   <DataArray Name="vectors" type="Float64" NumberOfComponents="3" Format="ascii">
 -0.344560E-03  0.241088E-03 -0.768107E-07
  0.341524E-03  0.322209E-03  0.262681E-03
 -0.166362E-03  0.725519E-03  0.440467E-04
  0.360757E-04  0.661949E-03  0.144497E-04
 -0.751038E-04  0.824845E-03 -0.693590E-04
 -0.181383E-04 -0.733805E-05  0.122456E-06
  0.166967E-03 -0.712872E-03  0.196493E-03
 -0.218511E-03 -0.358356E-04  0.555177E-05
  0.799458E-04 -0.442951E-04  0.621541E-05
 -0.733653E-03  0.118970E-03  0.153450E-03

    </DataArray>
    </PointData>
    <CellData Scalars="foo">
  0.420529E-03
  0.538014E-03
  0.745650E-03
  0.663089E-03
  0.831156E-03
  0.195668E-04
  0.758072E-03
  0.221500E-03
  0.916080E-04
  0.758912E-03
    </CellData>
    </Piece>
    </ImageData>
 </VTKFile>
