<?xml version="1.0"?>
 <VTKFile type="ImageData" version="0.1" byte_order="LittleEndian">
   <ImageData WholeExtent="           0          29           0          29           0           0 " Origin="  -8.0000000000000000       -8.0000000000000000        0.0000000000000000      " Spacing="  0.55172413793103448       0.55172413793103448        0.0000000000000000      ">
   <Piece Extent="           0          29           0          29           0           0 ">
   <PointData Scalars="scalars">
   <DataArray Name="vectors" type="Float64" NumberOfComponents="3" Format="ascii">
  0.474225E-07 -0.335929E-07  0.000000E+00
  0.101195E-06 -0.602214E-07  0.000000E+00
  0.172972E-06 -0.771460E-07  0.000000E+00
  0.206772E-06 -0.340845E-07  0.000000E+00
  0.620587E-07  0.148560E-06  0.000000E+00
 -0.464063E-06  0.513600E-06  0.000000E+00
 -0.145756E-05  0.900364E-06  0.000000E+00
 -0.248687E-05  0.720147E-06  0.000000E+00
 -0.205871E-05 -0.113584E-05  0.000000E+00
  0.283197E-05 -0.596639E-05  0.000000E+00
  0.166565E-04 -0.143047E-04  0.000000E+00
  0.439305E-04 -0.244533E-04  0.000000E+00
  0.851506E-04 -0.313587E-04  0.000000E+00
  0.131151E-03 -0.280282E-04  0.000000E+00
  0.162787E-03 -0.114588E-04  0.000000E+00
  0.162787E-03  0.114588E-04  0.000000E+00
  0.131151E-03  0.280282E-04  0.000000E+00
  0.851506E-04  0.313587E-04  0.000000E+00
  0.439305E-04  0.244533E-04  0.000000E+00
  0.166565E-04  0.143047E-04  0.000000E+00
  0.283197E-05  0.596639E-05  0.000000E+00
 -0.205871E-05  0.113584E-05  0.000000E+00
 -0.248687E-05 -0.720147E-06  0.000000E+00
 -0.145756E-05 -0.900364E-06  0.000000E+00
 -0.464063E-06 -0.513600E-06  0.000000E+00
  0.620587E-07 -0.148560E-06  0.000000E+00
  0.206772E-06  0.340845E-07  0.000000E+00
  0.172972E-06  0.771460E-07  0.000000E+00
  0.101195E-06  0.602214E-07  0.000000E+00
  0.474225E-07  0.335929E-07  0.000000E+00
  0.158242E-06 -0.125538E-06  0.000000E+00
  0.350273E-06 -0.237952E-06  0.000000E+00
  0.641964E-06 -0.349090E-06  0.000000E+00
  0.909786E-06 -0.313123E-06  0.000000E+00
  0.780552E-06  0.133225E-06  0.000000E+00
 -0.375907E-06  0.122293E-05  0.000000E+00
 -0.309625E-05  0.272195E-05  0.000000E+00
 -0.692312E-05  0.324977E-05  0.000000E+00
 -0.896991E-05 -0.251349E-06  0.000000E+00
 -0.202268E-05 -0.122221E-04  0.000000E+00
  0.273981E-04 -0.365249E-04  0.000000E+00
  0.976188E-04 -0.715964E-04  0.000000E+00
  0.218898E-03 -0.102624E-03  0.000000E+00
  0.367755E-03 -0.998568E-04  0.000000E+00
  0.476368E-03 -0.427826E-04  0.000000E+00
  0.476368E-03  0.427826E-04  0.000000E+00
  0.367755E-03  0.998568E-04  0.000000E+00
  0.218898E-03  0.102624E-03  0.000000E+00
  0.976188E-04  0.715964E-04  0.000000E+00
  0.273981E-04  0.365249E-04  0.000000E+00
 -0.202268E-05  0.122221E-04  0.000000E+00
 -0.896991E-05  0.251349E-06  0.000000E+00
 -0.692312E-05 -0.324977E-05  0.000000E+00
 -0.309625E-05 -0.272195E-05  0.000000E+00
 -0.375907E-06 -0.122293E-05  0.000000E+00
  0.780552E-06 -0.133225E-06  0.000000E+00
  0.909786E-06  0.313123E-06  0.000000E+00
  0.641964E-06  0.349090E-06  0.000000E+00
  0.350273E-06  0.237952E-06  0.000000E+00
  0.158242E-06  0.125538E-06  0.000000E+00
  0.456534E-06 -0.408368E-06  0.000000E+00
  0.104069E-05 -0.806336E-06  0.000000E+00
  0.200968E-05 -0.128921E-05  0.000000E+00
  0.317036E-05 -0.149251E-05  0.000000E+00
  0.370957E-05 -0.656159E-06  0.000000E+00
  0.200032E-05  0.212100E-05  0.000000E+00
 -0.392091E-05  0.683139E-05  0.000000E+00
 -0.146491E-04  0.105717E-04  0.000000E+00
 -0.259866E-04  0.529037E-05  0.000000E+00
 -0.225388E-04 -0.233748E-04  0.000000E+00
  0.325450E-04 -0.937898E-04  0.000000E+00
  0.200961E-03 -0.214592E-03  0.000000E+00
  0.533718E-03 -0.346522E-03  0.000000E+00
  0.982990E-03 -0.368337E-03  0.000000E+00
  0.133534E-02 -0.165662E-03  0.000000E+00
  0.133534E-02  0.165662E-03  0.000000E+00
  0.982990E-03  0.368337E-03  0.000000E+00
  0.533718E-03  0.346522E-03  0.000000E+00
  0.200961E-03  0.214592E-03  0.000000E+00
  0.325450E-04  0.937898E-04  0.000000E+00
 -0.225388E-04  0.233748E-04  0.000000E+00
 -0.259866E-04 -0.529037E-05  0.000000E+00
 -0.146491E-04 -0.105717E-04  0.000000E+00
 -0.392091E-05 -0.683139E-05  0.000000E+00
  0.200032E-05 -0.212100E-05  0.000000E+00
  0.370957E-05  0.656159E-06  0.000000E+00
  0.317036E-05  0.149251E-05  0.000000E+00
  0.200968E-05  0.128921E-05  0.000000E+00
  0.104069E-05  0.806336E-06  0.000000E+00
  0.456534E-06  0.408368E-06  0.000000E+00
  0.114036E-05 -0.116257E-05  0.000000E+00
  0.267172E-05 -0.237665E-05  0.000000E+00
  0.541142E-05 -0.406370E-05  0.000000E+00
  0.932235E-05 -0.547437E-05  0.000000E+00
  0.131256E-04 -0.466767E-05  0.000000E+00
  0.133640E-04  0.137168E-05  0.000000E+00
  0.426167E-05  0.144831E-04  0.000000E+00
 -0.198586E-04  0.296543E-04  0.000000E+00
 -0.569661E-04  0.270722E-04  0.000000E+00
 -0.792151E-04 -0.353637E-04  0.000000E+00
  0.201885E-06 -0.224935E-03  0.000000E+00
  0.346629E-03 -0.603235E-03  0.000000E+00
  0.114136E-02 -0.108941E-02  0.000000E+00
  0.240827E-02 -0.126649E-02  0.000000E+00
  0.358732E-02 -0.602610E-03  0.000000E+00
  0.358732E-02  0.602610E-03  0.000000E+00
  0.240827E-02  0.126649E-02  0.000000E+00
  0.114136E-02  0.108941E-02  0.000000E+00
  0.346629E-03  0.603235E-03  0.000000E+00
  0.201885E-06  0.224935E-03  0.000000E+00
 -0.792151E-04  0.353637E-04  0.000000E+00
 -0.569661E-04 -0.270722E-04  0.000000E+00
 -0.198586E-04 -0.296543E-04  0.000000E+00
  0.426167E-05 -0.144831E-04  0.000000E+00
  0.133640E-04 -0.137168E-05  0.000000E+00
  0.131256E-04  0.466767E-05  0.000000E+00
  0.932235E-05  0.547437E-05  0.000000E+00
  0.541142E-05  0.406370E-05  0.000000E+00
  0.267172E-05  0.237665E-05  0.000000E+00
  0.114036E-05  0.116257E-05  0.000000E+00
  0.246749E-05 -0.291000E-05  0.000000E+00
  0.596464E-05 -0.616717E-05  0.000000E+00
  0.127614E-04 -0.112706E-04  0.000000E+00
  0.241451E-04 -0.172096E-04  0.000000E+00
  0.398253E-04 -0.197277E-04  0.000000E+00
  0.545517E-04 -0.964807E-05  0.000000E+00
  0.536578E-04  0.232304E-04  0.000000E+00
  0.137893E-04  0.741300E-04  0.000000E+00
 -0.799188E-04  0.984971E-04  0.000000E+00
 -0.187435E-03 -0.125181E-04  0.000000E+00
 -0.135172E-03 -0.454050E-03  0.000000E+00
  0.435472E-03 -0.145886E-02  0.000000E+00
  0.213117E-02 -0.297223E-02  0.000000E+00
  0.586479E-02 -0.393814E-02  0.000000E+00
  0.103412E-01 -0.208348E-02  0.000000E+00
  0.103412E-01  0.208348E-02  0.000000E+00
  0.586479E-02  0.393814E-02  0.000000E+00
  0.213117E-02  0.297223E-02  0.000000E+00
  0.435472E-03  0.145886E-02  0.000000E+00
 -0.135172E-03  0.454050E-03  0.000000E+00
 -0.187435E-03  0.125181E-04  0.000000E+00
 -0.799188E-04 -0.984971E-04  0.000000E+00
  0.137893E-04 -0.741300E-04  0.000000E+00
  0.536578E-04 -0.232304E-04  0.000000E+00
  0.545517E-04  0.964807E-05  0.000000E+00
  0.398253E-04  0.197277E-04  0.000000E+00
  0.241451E-04  0.172096E-04  0.000000E+00
  0.127614E-04  0.112706E-04  0.000000E+00
  0.596464E-05  0.616717E-05  0.000000E+00
  0.246749E-05  0.291000E-05  0.000000E+00
  0.462032E-05 -0.642858E-05  0.000000E+00
  0.116411E-04 -0.142354E-04  0.000000E+00
  0.267694E-04 -0.281315E-04  0.000000E+00
  0.567516E-04 -0.488015E-04  0.000000E+00
  0.109822E-03 -0.691717E-04  0.000000E+00
  0.185784E-03 -0.637638E-04  0.000000E+00
  0.253324E-03  0.799352E-05  0.000000E+00
  0.236370E-03  0.156095E-03  0.000000E+00
  0.558308E-04  0.287679E-03  0.000000E+00
 -0.251005E-03  0.153629E-03  0.000000E+00
 -0.376231E-03 -0.700746E-03  0.000000E+00
  0.344560E-03 -0.291654E-02  0.000000E+00
  0.354404E-02 -0.698373E-02  0.000000E+00
  0.129457E-01 -0.114444E-01  0.000000E+00
  0.276420E-01 -0.718056E-02  0.000000E+00
  0.276420E-01  0.718056E-02  0.000000E+00
  0.129457E-01  0.114444E-01  0.000000E+00
  0.354404E-02  0.698373E-02  0.000000E+00
  0.344560E-03  0.291654E-02  0.000000E+00
 -0.376231E-03  0.700746E-03  0.000000E+00
 -0.251005E-03 -0.153629E-03  0.000000E+00
  0.558308E-04 -0.287679E-03  0.000000E+00
  0.236370E-03 -0.156095E-03  0.000000E+00
  0.253324E-03 -0.799352E-05  0.000000E+00
  0.185784E-03  0.637638E-04  0.000000E+00
  0.109822E-03  0.691717E-04  0.000000E+00
  0.567516E-04  0.488015E-04  0.000000E+00
  0.267694E-04  0.281315E-04  0.000000E+00
  0.116411E-04  0.142354E-04  0.000000E+00
  0.462032E-05  0.642858E-05  0.000000E+00
  0.744489E-05 -0.125499E-04  0.000000E+00
  0.198386E-04 -0.293838E-04  0.000000E+00
  0.500698E-04 -0.638047E-04  0.000000E+00
  0.121114E-03 -0.126608E-03  0.000000E+00
  0.274080E-03 -0.213220E-03  0.000000E+00
  0.546529E-03 -0.259409E-03  0.000000E+00
  0.892871E-03 -0.129938E-03  0.000000E+00
  0.110448E-02  0.250260E-03  0.000000E+00
  0.905300E-03  0.688457E-03  0.000000E+00
  0.271014E-03  0.653656E-03  0.000000E+00
 -0.282534E-03 -0.728271E-03  0.000000E+00
  0.306640E-03 -0.482985E-02  0.000000E+00
  0.460681E-02 -0.139065E-01  0.000000E+00
  0.187271E-01 -0.279933E-01  0.000000E+00
  0.447576E-01 -0.274603E-01  0.000000E+00
  0.447576E-01  0.274603E-01  0.000000E+00
  0.187271E-01  0.279933E-01  0.000000E+00
  0.460681E-02  0.139065E-01  0.000000E+00
  0.306640E-03  0.482985E-02  0.000000E+00
 -0.282534E-03  0.728271E-03  0.000000E+00
  0.271014E-03 -0.653656E-03  0.000000E+00
  0.905300E-03 -0.688457E-03  0.000000E+00
  0.110448E-02 -0.250260E-03  0.000000E+00
  0.892871E-03  0.129938E-03  0.000000E+00
  0.546529E-03  0.259409E-03  0.000000E+00
  0.274080E-03  0.213220E-03  0.000000E+00
  0.121114E-03  0.126608E-03  0.000000E+00
  0.500698E-04  0.638047E-04  0.000000E+00
  0.198386E-04  0.293838E-04  0.000000E+00
  0.744489E-05  0.125499E-04  0.000000E+00
  0.101467E-04 -0.215628E-04  0.000000E+00
  0.289676E-04 -0.539637E-04  0.000000E+00
  0.811436E-04 -0.130126E-03  0.000000E+00
  0.223418E-03 -0.294351E-03  0.000000E+00
  0.579012E-03 -0.570585E-03  0.000000E+00
  0.132430E-02 -0.833441E-03  0.000000E+00
  0.250806E-02 -0.728477E-03  0.000000E+00
  0.367377E-02  0.928431E-04  0.000000E+00
  0.392925E-02  0.133418E-02  0.000000E+00
  0.297422E-02  0.175658E-02  0.000000E+00
  0.174238E-02 -0.234087E-03  0.000000E+00
  0.194787E-02 -0.667020E-02  0.000000E+00
  0.573405E-02 -0.215297E-01  0.000000E+00
  0.152071E-01 -0.445412E-01  0.000000E+00
  0.219861E-01 -0.373142E-01  0.000000E+00
  0.219861E-01  0.373142E-01  0.000000E+00
  0.152071E-01  0.445412E-01  0.000000E+00
  0.573405E-02  0.215297E-01  0.000000E+00
  0.194787E-02  0.667020E-02  0.000000E+00
  0.174238E-02  0.234087E-03  0.000000E+00
  0.297422E-02 -0.175658E-02  0.000000E+00
  0.392925E-02 -0.133418E-02  0.000000E+00
  0.367377E-02 -0.928431E-04  0.000000E+00
  0.250806E-02  0.728477E-03  0.000000E+00
  0.132430E-02  0.833441E-03  0.000000E+00
  0.579012E-03  0.570585E-03  0.000000E+00
  0.223418E-03  0.294351E-03  0.000000E+00
  0.811436E-04  0.130126E-03  0.000000E+00
  0.289676E-04  0.539637E-04  0.000000E+00
  0.101467E-04  0.215628E-04  0.000000E+00
  0.111929E-04 -0.321999E-04  0.000000E+00
  0.343202E-04 -0.864993E-04  0.000000E+00
  0.105455E-03 -0.231125E-03  0.000000E+00
  0.320633E-03 -0.587043E-03  0.000000E+00
  0.929221E-03 -0.129491E-02  0.000000E+00
  0.250573E-02 -0.235861E-02  0.000000E+00
  0.589572E-02 -0.331470E-02  0.000000E+00
  0.105594E-01 -0.229943E-02  0.000000E+00
  0.131200E-01  0.147559E-02  0.000000E+00
  0.118281E-01  0.388153E-02  0.000000E+00
  0.945682E-02  0.867619E-03  0.000000E+00
  0.103714E-01 -0.864364E-02  0.000000E+00
  0.140138E-01 -0.253256E-01  0.000000E+00
  0.107922E-01 -0.461780E-01  0.000000E+00
 -0.595385E-02 -0.347116E-01  0.000000E+00
 -0.595385E-02  0.347116E-01  0.000000E+00
  0.107922E-01  0.461780E-01  0.000000E+00
  0.140138E-01  0.253256E-01  0.000000E+00
  0.103714E-01  0.864364E-02  0.000000E+00
  0.945682E-02 -0.867619E-03  0.000000E+00
  0.118281E-01 -0.388153E-02  0.000000E+00
  0.131200E-01 -0.147559E-02  0.000000E+00
  0.105594E-01  0.229943E-02  0.000000E+00
  0.589572E-02  0.331470E-02  0.000000E+00
  0.250573E-02  0.235861E-02  0.000000E+00
  0.929221E-03  0.129491E-02  0.000000E+00
  0.320633E-03  0.587043E-03  0.000000E+00
  0.105455E-03  0.231125E-03  0.000000E+00
  0.343202E-04  0.864993E-04  0.000000E+00
  0.111929E-04  0.321999E-04  0.000000E+00
  0.887923E-05 -0.408092E-04  0.000000E+00
  0.288131E-04 -0.117054E-03  0.000000E+00
  0.930308E-04 -0.341430E-03  0.000000E+00
  0.294082E-03 -0.953720E-03  0.000000E+00
  0.946434E-03 -0.240156E-02  0.000000E+00
  0.332513E-02 -0.569544E-02  0.000000E+00
  0.107073E-01 -0.116366E-01  0.000000E+00
  0.251020E-01 -0.134687E-01  0.000000E+00
  0.354147E-01 -0.884068E-03  0.000000E+00
  0.330885E-01  0.787405E-02  0.000000E+00
  0.273283E-01  0.211419E-02  0.000000E+00
  0.312259E-01 -0.143135E-01  0.000000E+00
  0.394258E-01 -0.277132E-01  0.000000E+00
  0.273365E-01 -0.162177E-01  0.000000E+00
 -0.367748E-01  0.442665E-02  0.000000E+00
 -0.367748E-01 -0.442665E-02  0.000000E+00
  0.273365E-01  0.162177E-01  0.000000E+00
  0.394258E-01  0.277132E-01  0.000000E+00
  0.312259E-01  0.143135E-01  0.000000E+00
  0.273283E-01 -0.211419E-02  0.000000E+00
  0.330885E-01 -0.787405E-02  0.000000E+00
  0.354147E-01  0.884068E-03  0.000000E+00
  0.251020E-01  0.134687E-01  0.000000E+00
  0.107073E-01  0.116366E-01  0.000000E+00
  0.332513E-02  0.569544E-02  0.000000E+00
  0.946434E-03  0.240156E-02  0.000000E+00
  0.294082E-03  0.953720E-03  0.000000E+00
  0.930308E-04  0.341430E-03  0.000000E+00
  0.288131E-04  0.117054E-03  0.000000E+00
  0.887923E-05  0.408092E-04  0.000000E+00
  0.278698E-05 -0.421656E-04  0.000000E+00
  0.897857E-05 -0.127655E-03  0.000000E+00
  0.247311E-04 -0.398333E-03  0.000000E+00
  0.552487E-04 -0.119540E-02  0.000000E+00
  0.223967E-03 -0.334721E-02  0.000000E+00
  0.178086E-02 -0.959224E-02  0.000000E+00
  0.919309E-02 -0.250944E-01  0.000000E+00
  0.306268E-01 -0.399183E-01  0.000000E+00
  0.520577E-01 -0.457850E-02  0.000000E+00
  0.514213E-01  0.145759E-01  0.000000E+00
  0.412141E-01  0.639312E-02  0.000000E+00
  0.468035E-01 -0.275108E-01  0.000000E+00
  0.544969E-01 -0.299951E-01  0.000000E+00
  0.524979E-01  0.117810E-01  0.000000E+00
 -0.303929E-03 -0.115018E+00  0.000000E+00
 -0.303929E-03  0.115018E+00  0.000000E+00
  0.524979E-01 -0.117810E-01  0.000000E+00
  0.544969E-01  0.299951E-01  0.000000E+00
  0.468035E-01  0.275108E-01  0.000000E+00
  0.412141E-01 -0.639312E-02  0.000000E+00
  0.514213E-01 -0.145759E-01  0.000000E+00
  0.520577E-01  0.457850E-02  0.000000E+00
  0.306268E-01  0.399183E-01  0.000000E+00
  0.919309E-02  0.250944E-01  0.000000E+00
  0.178086E-02  0.959224E-02  0.000000E+00
  0.223967E-03  0.334721E-02  0.000000E+00
  0.552487E-04  0.119540E-02  0.000000E+00
  0.247311E-04  0.398333E-03  0.000000E+00
  0.897857E-05  0.127655E-03  0.000000E+00
  0.278698E-05  0.421656E-04  0.000000E+00
 -0.490720E-05 -0.327777E-04  0.000000E+00
 -0.178983E-04 -0.104161E-03  0.000000E+00
 -0.711648E-04 -0.344127E-03  0.000000E+00
 -0.282000E-03 -0.109166E-02  0.000000E+00
 -0.918873E-03 -0.322016E-02  0.000000E+00
 -0.210313E-02 -0.974054E-02  0.000000E+00
 -0.449544E-02 -0.275334E-01  0.000000E+00
 -0.151456E-01 -0.510202E-01  0.000000E+00
 -0.645843E-02 -0.253863E-01  0.000000E+00
  0.146634E-01  0.172625E-01  0.000000E+00
 -0.116730E-01  0.270014E-01  0.000000E+00
  0.402497E-02 -0.598551E-01  0.000000E+00
  0.467705E-02 -0.174161E-01  0.000000E+00
 -0.215002E-01  0.267795E-01  0.000000E+00
 -0.106985E-01  0.371160E-01  0.000000E+00
 -0.106985E-01 -0.371160E-01  0.000000E+00
 -0.215002E-01 -0.267795E-01  0.000000E+00
  0.467705E-02  0.174161E-01  0.000000E+00
  0.402497E-02  0.598551E-01  0.000000E+00
 -0.116730E-01 -0.270014E-01  0.000000E+00
  0.146634E-01 -0.172625E-01  0.000000E+00
 -0.645843E-02  0.253863E-01  0.000000E+00
 -0.151456E-01  0.510202E-01  0.000000E+00
 -0.449544E-02  0.275334E-01  0.000000E+00
 -0.210313E-02  0.974054E-02  0.000000E+00
 -0.918873E-03  0.322016E-02  0.000000E+00
 -0.282000E-03  0.109166E-02  0.000000E+00
 -0.711648E-04  0.344127E-03  0.000000E+00
 -0.178983E-04  0.104161E-03  0.000000E+00
 -0.490720E-05  0.327777E-04  0.000000E+00
 -0.101597E-04 -0.145174E-04  0.000000E+00
 -0.363511E-04 -0.513399E-04  0.000000E+00
 -0.133298E-03 -0.189172E-03  0.000000E+00
 -0.475437E-03 -0.656782E-03  0.000000E+00
 -0.152558E-02 -0.203507E-02  0.000000E+00
 -0.423065E-02 -0.604226E-02  0.000000E+00
 -0.114093E-01 -0.166376E-01  0.000000E+00
 -0.268829E-01 -0.331702E-01  0.000000E+00
 -0.394750E-01 -0.355344E-01  0.000000E+00
 -0.379658E-01  0.148235E-01  0.000000E+00
  0.138464E+00 -0.401571E+00  0.000000E+00
  0.239208E-01  0.368547E-01  0.000000E+00
 -0.505452E-01  0.261298E-02  0.000000E+00
 -0.547445E-01  0.312778E-01  0.000000E+00
 -0.434866E-01  0.174801E-01  0.000000E+00
 -0.434866E-01 -0.174801E-01  0.000000E+00
 -0.547445E-01 -0.312778E-01  0.000000E+00
 -0.505452E-01 -0.261298E-02  0.000000E+00
  0.239208E-01 -0.368547E-01  0.000000E+00
  0.138464E+00  0.401571E+00  0.000000E+00
 -0.379658E-01 -0.148235E-01  0.000000E+00
 -0.394750E-01  0.355344E-01  0.000000E+00
 -0.268829E-01  0.331702E-01  0.000000E+00
 -0.114093E-01  0.166376E-01  0.000000E+00
 -0.423065E-02  0.604226E-02  0.000000E+00
 -0.152558E-02  0.203507E-02  0.000000E+00
 -0.475437E-03  0.656782E-03  0.000000E+00
 -0.133298E-03  0.189172E-03  0.000000E+00
 -0.363511E-04  0.513399E-04  0.000000E+00
 -0.101597E-04  0.145174E-04  0.000000E+00
 -0.983821E-05  0.531127E-05  0.000000E+00
 -0.348391E-04  0.706136E-05  0.000000E+00
 -0.122991E-03 -0.126704E-04  0.000000E+00
 -0.412784E-03 -0.142148E-03  0.000000E+00
 -0.125596E-02 -0.661700E-03  0.000000E+00
 -0.338184E-02 -0.236314E-02  0.000000E+00
 -0.830932E-02 -0.725183E-02  0.000000E+00
 -0.172927E-01 -0.180655E-01  0.000000E+00
 -0.238812E-01 -0.317902E-01  0.000000E+00
 -0.802669E-03 -0.288324E-01  0.000000E+00
  0.666201E-01 -0.288623E-01  0.000000E+00
  0.415724E-01  0.744620E-02  0.000000E+00
 -0.206684E-01  0.304870E-01  0.000000E+00
 -0.303083E-01  0.249627E-01  0.000000E+00
 -0.233367E-01  0.873569E-02  0.000000E+00
 -0.233367E-01 -0.873569E-02  0.000000E+00
 -0.303083E-01 -0.249627E-01  0.000000E+00
 -0.206684E-01 -0.304870E-01  0.000000E+00
  0.415724E-01 -0.744620E-02  0.000000E+00
  0.666201E-01  0.288623E-01  0.000000E+00
 -0.802669E-03  0.288324E-01  0.000000E+00
 -0.238812E-01  0.317902E-01  0.000000E+00
 -0.172927E-01  0.180655E-01  0.000000E+00
 -0.830932E-02  0.725183E-02  0.000000E+00
 -0.338184E-02  0.236314E-02  0.000000E+00
 -0.125596E-02  0.661700E-03  0.000000E+00
 -0.412784E-03  0.142148E-03  0.000000E+00
 -0.122991E-03  0.126704E-04  0.000000E+00
 -0.348391E-04 -0.706136E-05  0.000000E+00
 -0.983821E-05 -0.531127E-05  0.000000E+00
 -0.402705E-05  0.179951E-04  0.000000E+00
 -0.141658E-04  0.441256E-04  0.000000E+00
 -0.490215E-04  0.989063E-04  0.000000E+00
 -0.159117E-03  0.185807E-03  0.000000E+00
 -0.465734E-03  0.199639E-03  0.000000E+00
 -0.120491E-02 -0.363581E-03  0.000000E+00
 -0.275203E-02 -0.301180E-02  0.000000E+00
 -0.510588E-02 -0.118754E-01  0.000000E+00
 -0.589539E-02 -0.341096E-01  0.000000E+00
  0.261637E-02 -0.605347E-01  0.000000E+00
  0.155386E-01 -0.318825E-01  0.000000E+00
  0.113920E-01  0.497395E-01  0.000000E+00
 -0.239996E-02  0.526352E-01  0.000000E+00
 -0.677556E-02  0.232054E-01  0.000000E+00
 -0.538780E-02  0.535816E-02  0.000000E+00
 -0.538780E-02 -0.535816E-02  0.000000E+00
 -0.677556E-02 -0.232054E-01  0.000000E+00
 -0.239996E-02 -0.526352E-01  0.000000E+00
  0.113920E-01 -0.497395E-01  0.000000E+00
  0.155386E-01  0.318825E-01  0.000000E+00
  0.261637E-02  0.605347E-01  0.000000E+00
 -0.589539E-02  0.341096E-01  0.000000E+00
 -0.510588E-02  0.118754E-01  0.000000E+00
 -0.275203E-02  0.301180E-02  0.000000E+00
 -0.120491E-02  0.363581E-03  0.000000E+00
 -0.465734E-03 -0.199639E-03  0.000000E+00
 -0.159117E-03 -0.185807E-03  0.000000E+00
 -0.490215E-04 -0.989063E-04  0.000000E+00
 -0.141658E-04 -0.441256E-04  0.000000E+00
 -0.402705E-05 -0.179951E-04  0.000000E+00
  0.402705E-05  0.179951E-04  0.000000E+00
  0.141658E-04  0.441256E-04  0.000000E+00
  0.490215E-04  0.989063E-04  0.000000E+00
  0.159117E-03  0.185807E-03  0.000000E+00
  0.465734E-03  0.199639E-03  0.000000E+00
  0.120491E-02 -0.363581E-03  0.000000E+00
  0.275203E-02 -0.301180E-02  0.000000E+00
  0.510588E-02 -0.118754E-01  0.000000E+00
  0.589539E-02 -0.341096E-01  0.000000E+00
 -0.261637E-02 -0.605347E-01  0.000000E+00
 -0.155386E-01 -0.318825E-01  0.000000E+00
 -0.113920E-01  0.497395E-01  0.000000E+00
  0.239996E-02  0.526352E-01  0.000000E+00
  0.677556E-02  0.232054E-01  0.000000E+00
  0.538780E-02  0.535816E-02  0.000000E+00
  0.538780E-02 -0.535816E-02  0.000000E+00
  0.677556E-02 -0.232054E-01  0.000000E+00
  0.239996E-02 -0.526352E-01  0.000000E+00
 -0.113920E-01 -0.497395E-01  0.000000E+00
 -0.155386E-01  0.318825E-01  0.000000E+00
 -0.261637E-02  0.605347E-01  0.000000E+00
  0.589539E-02  0.341096E-01  0.000000E+00
  0.510588E-02  0.118754E-01  0.000000E+00
  0.275203E-02  0.301180E-02  0.000000E+00
  0.120491E-02  0.363581E-03  0.000000E+00
  0.465734E-03 -0.199639E-03  0.000000E+00
  0.159117E-03 -0.185807E-03  0.000000E+00
  0.490215E-04 -0.989063E-04  0.000000E+00
  0.141658E-04 -0.441256E-04  0.000000E+00
  0.402705E-05 -0.179951E-04  0.000000E+00
  0.983821E-05  0.531127E-05  0.000000E+00
  0.348391E-04  0.706136E-05  0.000000E+00
  0.122991E-03 -0.126704E-04  0.000000E+00
  0.412784E-03 -0.142148E-03  0.000000E+00
  0.125596E-02 -0.661700E-03  0.000000E+00
  0.338184E-02 -0.236314E-02  0.000000E+00
  0.830932E-02 -0.725183E-02  0.000000E+00
  0.172927E-01 -0.180655E-01  0.000000E+00
  0.238812E-01 -0.317902E-01  0.000000E+00
  0.802669E-03 -0.288324E-01  0.000000E+00
 -0.666201E-01 -0.288623E-01  0.000000E+00
 -0.415724E-01  0.744620E-02  0.000000E+00
  0.206684E-01  0.304870E-01  0.000000E+00
  0.303083E-01  0.249627E-01  0.000000E+00
  0.233367E-01  0.873569E-02  0.000000E+00
  0.233367E-01 -0.873569E-02  0.000000E+00
  0.303083E-01 -0.249627E-01  0.000000E+00
  0.206684E-01 -0.304870E-01  0.000000E+00
 -0.415724E-01 -0.744620E-02  0.000000E+00
 -0.666201E-01  0.288623E-01  0.000000E+00
  0.802669E-03  0.288324E-01  0.000000E+00
  0.238812E-01  0.317902E-01  0.000000E+00
  0.172927E-01  0.180655E-01  0.000000E+00
  0.830932E-02  0.725183E-02  0.000000E+00
  0.338184E-02  0.236314E-02  0.000000E+00
  0.125596E-02  0.661700E-03  0.000000E+00
  0.412784E-03  0.142148E-03  0.000000E+00
  0.122991E-03  0.126704E-04  0.000000E+00
  0.348391E-04 -0.706136E-05  0.000000E+00
  0.983821E-05 -0.531127E-05  0.000000E+00
  0.101597E-04 -0.145174E-04  0.000000E+00
  0.363511E-04 -0.513399E-04  0.000000E+00
  0.133298E-03 -0.189172E-03  0.000000E+00
  0.475437E-03 -0.656782E-03  0.000000E+00
  0.152558E-02 -0.203507E-02  0.000000E+00
  0.423065E-02 -0.604226E-02  0.000000E+00
  0.114093E-01 -0.166376E-01  0.000000E+00
  0.268829E-01 -0.331702E-01  0.000000E+00
  0.394750E-01 -0.355344E-01  0.000000E+00
  0.379658E-01  0.148235E-01  0.000000E+00
 -0.138464E+00 -0.401571E+00  0.000000E+00
 -0.239208E-01  0.368547E-01  0.000000E+00
  0.505452E-01  0.261298E-02  0.000000E+00
  0.547445E-01  0.312778E-01  0.000000E+00
  0.434866E-01  0.174801E-01  0.000000E+00
  0.434866E-01 -0.174801E-01  0.000000E+00
  0.547445E-01 -0.312778E-01  0.000000E+00
  0.505452E-01 -0.261298E-02  0.000000E+00
 -0.239208E-01 -0.368547E-01  0.000000E+00
 -0.138464E+00  0.401571E+00  0.000000E+00
  0.379658E-01 -0.148235E-01  0.000000E+00
  0.394750E-01  0.355344E-01  0.000000E+00
  0.268829E-01  0.331702E-01  0.000000E+00
  0.114093E-01  0.166376E-01  0.000000E+00
  0.423065E-02  0.604226E-02  0.000000E+00
  0.152558E-02  0.203507E-02  0.000000E+00
  0.475437E-03  0.656782E-03  0.000000E+00
  0.133298E-03  0.189172E-03  0.000000E+00
  0.363511E-04  0.513399E-04  0.000000E+00
  0.101597E-04  0.145174E-04  0.000000E+00
  0.490720E-05 -0.327777E-04  0.000000E+00
  0.178983E-04 -0.104161E-03  0.000000E+00
  0.711648E-04 -0.344127E-03  0.000000E+00
  0.282000E-03 -0.109166E-02  0.000000E+00
  0.918873E-03 -0.322016E-02  0.000000E+00
  0.210313E-02 -0.974054E-02  0.000000E+00
  0.449544E-02 -0.275334E-01  0.000000E+00
  0.151456E-01 -0.510202E-01  0.000000E+00
  0.645843E-02 -0.253863E-01  0.000000E+00
 -0.146634E-01  0.172625E-01  0.000000E+00
  0.116730E-01  0.270014E-01  0.000000E+00
 -0.402497E-02 -0.598551E-01  0.000000E+00
 -0.467705E-02 -0.174161E-01  0.000000E+00
  0.215002E-01  0.267795E-01  0.000000E+00
  0.106985E-01  0.371160E-01  0.000000E+00
  0.106985E-01 -0.371160E-01  0.000000E+00
  0.215002E-01 -0.267795E-01  0.000000E+00
 -0.467705E-02  0.174161E-01  0.000000E+00
 -0.402497E-02  0.598551E-01  0.000000E+00
  0.116730E-01 -0.270014E-01  0.000000E+00
 -0.146634E-01 -0.172625E-01  0.000000E+00
  0.645843E-02  0.253863E-01  0.000000E+00
  0.151456E-01  0.510202E-01  0.000000E+00
  0.449544E-02  0.275334E-01  0.000000E+00
  0.210313E-02  0.974054E-02  0.000000E+00
  0.918873E-03  0.322016E-02  0.000000E+00
  0.282000E-03  0.109166E-02  0.000000E+00
  0.711648E-04  0.344127E-03  0.000000E+00
  0.178983E-04  0.104161E-03  0.000000E+00
  0.490720E-05  0.327777E-04  0.000000E+00
 -0.278698E-05 -0.421656E-04  0.000000E+00
 -0.897857E-05 -0.127655E-03  0.000000E+00
 -0.247311E-04 -0.398333E-03  0.000000E+00
 -0.552487E-04 -0.119540E-02  0.000000E+00
 -0.223967E-03 -0.334721E-02  0.000000E+00
 -0.178086E-02 -0.959224E-02  0.000000E+00
 -0.919309E-02 -0.250944E-01  0.000000E+00
 -0.306268E-01 -0.399183E-01  0.000000E+00
 -0.520577E-01 -0.457850E-02  0.000000E+00
 -0.514213E-01  0.145759E-01  0.000000E+00
 -0.412141E-01  0.639312E-02  0.000000E+00
 -0.468035E-01 -0.275108E-01  0.000000E+00
 -0.544969E-01 -0.299951E-01  0.000000E+00
 -0.524979E-01  0.117810E-01  0.000000E+00
  0.303929E-03 -0.115018E+00  0.000000E+00
  0.303929E-03  0.115018E+00  0.000000E+00
 -0.524979E-01 -0.117810E-01  0.000000E+00
 -0.544969E-01  0.299951E-01  0.000000E+00
 -0.468035E-01  0.275108E-01  0.000000E+00
 -0.412141E-01 -0.639312E-02  0.000000E+00
 -0.514213E-01 -0.145759E-01  0.000000E+00
 -0.520577E-01  0.457850E-02  0.000000E+00
 -0.306268E-01  0.399183E-01  0.000000E+00
 -0.919309E-02  0.250944E-01  0.000000E+00
 -0.178086E-02  0.959224E-02  0.000000E+00
 -0.223967E-03  0.334721E-02  0.000000E+00
 -0.552487E-04  0.119540E-02  0.000000E+00
 -0.247311E-04  0.398333E-03  0.000000E+00
 -0.897857E-05  0.127655E-03  0.000000E+00
 -0.278698E-05  0.421656E-04  0.000000E+00
 -0.887923E-05 -0.408092E-04  0.000000E+00
 -0.288131E-04 -0.117054E-03  0.000000E+00
 -0.930308E-04 -0.341430E-03  0.000000E+00
 -0.294082E-03 -0.953720E-03  0.000000E+00
 -0.946434E-03 -0.240156E-02  0.000000E+00
 -0.332513E-02 -0.569544E-02  0.000000E+00
 -0.107073E-01 -0.116366E-01  0.000000E+00
 -0.251020E-01 -0.134687E-01  0.000000E+00
 -0.354147E-01 -0.884068E-03  0.000000E+00
 -0.330885E-01  0.787405E-02  0.000000E+00
 -0.273283E-01  0.211419E-02  0.000000E+00
 -0.312259E-01 -0.143135E-01  0.000000E+00
 -0.394258E-01 -0.277132E-01  0.000000E+00
 -0.273365E-01 -0.162177E-01  0.000000E+00
  0.367748E-01  0.442665E-02  0.000000E+00
  0.367748E-01 -0.442665E-02  0.000000E+00
 -0.273365E-01  0.162177E-01  0.000000E+00
 -0.394258E-01  0.277132E-01  0.000000E+00
 -0.312259E-01  0.143135E-01  0.000000E+00
 -0.273283E-01 -0.211419E-02  0.000000E+00
 -0.330885E-01 -0.787405E-02  0.000000E+00
 -0.354147E-01  0.884068E-03  0.000000E+00
 -0.251020E-01  0.134687E-01  0.000000E+00
 -0.107073E-01  0.116366E-01  0.000000E+00
 -0.332513E-02  0.569544E-02  0.000000E+00
 -0.946434E-03  0.240156E-02  0.000000E+00
 -0.294082E-03  0.953720E-03  0.000000E+00
 -0.930308E-04  0.341430E-03  0.000000E+00
 -0.288131E-04  0.117054E-03  0.000000E+00
 -0.887923E-05  0.408092E-04  0.000000E+00
 -0.111929E-04 -0.321999E-04  0.000000E+00
 -0.343202E-04 -0.864993E-04  0.000000E+00
 -0.105455E-03 -0.231125E-03  0.000000E+00
 -0.320633E-03 -0.587043E-03  0.000000E+00
 -0.929221E-03 -0.129491E-02  0.000000E+00
 -0.250573E-02 -0.235861E-02  0.000000E+00
 -0.589572E-02 -0.331470E-02  0.000000E+00
 -0.105594E-01 -0.229943E-02  0.000000E+00
 -0.131200E-01  0.147559E-02  0.000000E+00
 -0.118281E-01  0.388153E-02  0.000000E+00
 -0.945682E-02  0.867619E-03  0.000000E+00
 -0.103714E-01 -0.864364E-02  0.000000E+00
 -0.140138E-01 -0.253256E-01  0.000000E+00
 -0.107922E-01 -0.461780E-01  0.000000E+00
  0.595385E-02 -0.347116E-01  0.000000E+00
  0.595385E-02  0.347116E-01  0.000000E+00
 -0.107922E-01  0.461780E-01  0.000000E+00
 -0.140138E-01  0.253256E-01  0.000000E+00
 -0.103714E-01  0.864364E-02  0.000000E+00
 -0.945682E-02 -0.867619E-03  0.000000E+00
 -0.118281E-01 -0.388153E-02  0.000000E+00
 -0.131200E-01 -0.147559E-02  0.000000E+00
 -0.105594E-01  0.229943E-02  0.000000E+00
 -0.589572E-02  0.331470E-02  0.000000E+00
 -0.250573E-02  0.235861E-02  0.000000E+00
 -0.929221E-03  0.129491E-02  0.000000E+00
 -0.320633E-03  0.587043E-03  0.000000E+00
 -0.105455E-03  0.231125E-03  0.000000E+00
 -0.343202E-04  0.864993E-04  0.000000E+00
 -0.111929E-04  0.321999E-04  0.000000E+00
 -0.101467E-04 -0.215628E-04  0.000000E+00
 -0.289676E-04 -0.539637E-04  0.000000E+00
 -0.811436E-04 -0.130126E-03  0.000000E+00
 -0.223418E-03 -0.294351E-03  0.000000E+00
 -0.579012E-03 -0.570585E-03  0.000000E+00
 -0.132430E-02 -0.833441E-03  0.000000E+00
 -0.250806E-02 -0.728477E-03  0.000000E+00
 -0.367377E-02  0.928431E-04  0.000000E+00
 -0.392925E-02  0.133418E-02  0.000000E+00
 -0.297422E-02  0.175658E-02  0.000000E+00
 -0.174238E-02 -0.234087E-03  0.000000E+00
 -0.194787E-02 -0.667020E-02  0.000000E+00
 -0.573405E-02 -0.215297E-01  0.000000E+00
 -0.152071E-01 -0.445412E-01  0.000000E+00
 -0.219861E-01 -0.373142E-01  0.000000E+00
 -0.219861E-01  0.373142E-01  0.000000E+00
 -0.152071E-01  0.445412E-01  0.000000E+00
 -0.573405E-02  0.215297E-01  0.000000E+00
 -0.194787E-02  0.667020E-02  0.000000E+00
 -0.174238E-02  0.234087E-03  0.000000E+00
 -0.297422E-02 -0.175658E-02  0.000000E+00
 -0.392925E-02 -0.133418E-02  0.000000E+00
 -0.367377E-02 -0.928431E-04  0.000000E+00
 -0.250806E-02  0.728477E-03  0.000000E+00