<?xml version="1.0"?>
 <VTKFile type="ImageData" version="0.1" byte_order="LittleEndian">
   <ImageData WholeExtent="           0          29           0          29           0           0 " Origin="  -8.0000000000000000       -8.0000000000000000        0.0000000000000000      " Spacing="  0.55172413793103448       0.55172413793103448        0.0000000000000000      ">
   <Piece Extent="           0          29           0          29           0           0 ">
   <PointData Scalars="scalars">
   <DataArray Name="vectors" type="Float64" NumberOfComponents="3" Format="ascii">
 -0.896155E-07  0.634814E-07  0.000000E+00
 -0.191230E-06  0.113802E-06  0.000000E+00
 -0.326870E-06  0.145785E-06  0.000000E+00
 -0.390742E-06  0.644103E-07  0.000000E+00
 -0.117274E-06 -0.280738E-06  0.000000E+00
  0.876953E-06 -0.970564E-06  0.000000E+00
  0.275439E-05 -0.170144E-05  0.000000E+00
  0.469949E-05 -0.136088E-05  0.000000E+00
  0.389040E-05  0.214644E-05  0.000000E+00
 -0.535165E-05  0.112748E-04  0.000000E+00
 -0.314763E-04  0.270319E-04  0.000000E+00
 -0.830165E-04  0.462101E-04  0.000000E+00
 -0.160911E-03  0.592593E-04  0.000000E+00
 -0.247839E-03  0.529657E-04  0.000000E+00
 -0.307623E-03  0.216541E-04  0.000000E+00
 -0.307623E-03 -0.216541E-04  0.000000E+00
 -0.247839E-03 -0.529657E-04  0.000000E+00
 -0.160911E-03 -0.592593E-04  0.000000E+00
 -0.830165E-04 -0.462101E-04  0.000000E+00
 -0.314763E-04 -0.270319E-04  0.000000E+00
 -0.535165E-05 -0.112748E-04  0.000000E+00
  0.389040E-05 -0.214644E-05  0.000000E+00
  0.469949E-05  0.136088E-05  0.000000E+00
  0.275439E-05  0.170144E-05  0.000000E+00
  0.876953E-06  0.970564E-06  0.000000E+00
 -0.117274E-06  0.280738E-06  0.000000E+00
 -0.390742E-06 -0.644103E-07  0.000000E+00
 -0.326870E-06 -0.145785E-06  0.000000E+00
 -0.191230E-06 -0.113802E-06  0.000000E+00
 -0.896155E-07 -0.634814E-07  0.000000E+00
 -0.299034E-06  0.237232E-06  0.000000E+00
 -0.661920E-06  0.449664E-06  0.000000E+00
 -0.121314E-05  0.659684E-06  0.000000E+00
 -0.171925E-05  0.591718E-06  0.000000E+00
 -0.147503E-05 -0.251758E-06  0.000000E+00
  0.710360E-06 -0.231101E-05  0.000000E+00
  0.585106E-05 -0.514375E-05  0.000000E+00
  0.130828E-04 -0.614117E-05  0.000000E+00
  0.169507E-04  0.474981E-06  0.000000E+00
  0.382232E-05  0.230965E-04  0.000000E+00
 -0.517749E-04  0.690221E-04  0.000000E+00
 -0.184473E-03  0.135298E-03  0.000000E+00
 -0.413657E-03  0.193930E-03  0.000000E+00
 -0.694956E-03  0.188702E-03  0.000000E+00
 -0.900205E-03  0.808475E-04  0.000000E+00
 -0.900205E-03 -0.808475E-04  0.000000E+00
 -0.694956E-03 -0.188702E-03  0.000000E+00
 -0.413657E-03 -0.193930E-03  0.000000E+00
 -0.184473E-03 -0.135298E-03  0.000000E+00
 -0.517749E-04 -0.690221E-04  0.000000E+00
  0.382232E-05 -0.230965E-04  0.000000E+00
  0.169507E-04 -0.474981E-06  0.000000E+00
  0.130828E-04  0.614117E-05  0.000000E+00
  0.585106E-05  0.514375E-05  0.000000E+00
  0.710360E-06  0.231101E-05  0.000000E+00
 -0.147503E-05  0.251758E-06  0.000000E+00
 -0.171925E-05 -0.591718E-06  0.000000E+00
 -0.121314E-05 -0.659684E-06  0.000000E+00
 -0.661920E-06 -0.449664E-06  0.000000E+00
 -0.299034E-06 -0.237232E-06  0.000000E+00
 -0.862724E-06  0.771704E-06  0.000000E+00
 -0.196662E-05  0.152375E-05  0.000000E+00
 -0.379774E-05  0.243625E-05  0.000000E+00
 -0.599111E-05  0.282044E-05  0.000000E+00
 -0.701007E-05  0.123996E-05  0.000000E+00
 -0.378006E-05 -0.400810E-05  0.000000E+00
  0.740945E-05 -0.129095E-04  0.000000E+00
  0.276828E-04 -0.199776E-04  0.000000E+00
  0.491076E-04 -0.999734E-05  0.000000E+00
  0.425922E-04  0.441720E-04  0.000000E+00
 -0.615011E-04  0.177237E-03  0.000000E+00
 -0.379762E-03  0.405520E-03  0.000000E+00
 -0.100858E-02  0.654831E-03  0.000000E+00
 -0.185758E-02  0.696055E-03  0.000000E+00
 -0.252343E-02  0.313055E-03  0.000000E+00
 -0.252343E-02 -0.313055E-03  0.000000E+00
 -0.185758E-02 -0.696055E-03  0.000000E+00
 -0.100858E-02 -0.654831E-03  0.000000E+00
 -0.379762E-03 -0.405520E-03  0.000000E+00
 -0.615011E-04 -0.177237E-03  0.000000E+00
  0.425922E-04 -0.441720E-04  0.000000E+00
  0.491076E-04  0.999734E-05  0.000000E+00
  0.276828E-04  0.199776E-04  0.000000E+00
  0.740945E-05  0.129095E-04  0.000000E+00
 -0.378006E-05  0.400810E-05  0.000000E+00
 -0.701007E-05 -0.123996E-05  0.000000E+00
 -0.599111E-05 -0.282044E-05  0.000000E+00
 -0.379774E-05 -0.243625E-05  0.000000E+00
 -0.196662E-05 -0.152375E-05  0.000000E+00
 -0.862724E-06 -0.771704E-06  0.000000E+00
 -0.215496E-05  0.219694E-05  0.000000E+00
 -0.504881E-05  0.449121E-05  0.000000E+00
 -0.102261E-04  0.767927E-05  0.000000E+00
 -0.176167E-04  0.103451E-04  0.000000E+00
 -0.248038E-04  0.882062E-05  0.000000E+00
 -0.252543E-04 -0.259209E-05  0.000000E+00
 -0.805339E-05 -0.273692E-04  0.000000E+00
  0.375272E-04 -0.560384E-04  0.000000E+00
  0.107650E-03 -0.511591E-04  0.000000E+00
  0.149695E-03  0.668277E-04  0.000000E+00
 -0.381508E-06  0.425065E-03  0.000000E+00
 -0.655034E-03  0.113995E-02  0.000000E+00
 -0.215685E-02  0.205869E-02  0.000000E+00
 -0.455097E-02  0.239333E-02  0.000000E+00
 -0.677904E-02  0.113877E-02  0.000000E+00
 -0.677904E-02 -0.113877E-02  0.000000E+00
 -0.455097E-02 -0.239333E-02  0.000000E+00
 -0.215685E-02 -0.205869E-02  0.000000E+00
 -0.655034E-03 -0.113995E-02  0.000000E+00
 -0.381508E-06 -0.425065E-03  0.000000E+00
  0.149695E-03 -0.668277E-04  0.000000E+00
  0.107650E-03  0.511591E-04  0.000000E+00
  0.375272E-04  0.560384E-04  0.000000E+00
 -0.805339E-05  0.273692E-04  0.000000E+00
 -0.252543E-04  0.259209E-05  0.000000E+00
 -0.248038E-04 -0.882062E-05  0.000000E+00
 -0.176167E-04 -0.103451E-04  0.000000E+00
 -0.102261E-04 -0.767927E-05  0.000000E+00
 -0.504881E-05 -0.449121E-05  0.000000E+00
 -0.215496E-05 -0.219694E-05  0.000000E+00
 -0.466289E-05  0.549911E-05  0.000000E+00
 -0.112715E-04  0.116543E-04  0.000000E+00
 -0.241155E-04  0.212984E-04  0.000000E+00
 -0.456276E-04  0.325214E-04  0.000000E+00
 -0.752588E-04  0.372799E-04  0.000000E+00
 -0.103088E-03  0.182322E-04  0.000000E+00
 -0.101398E-03 -0.438990E-04  0.000000E+00
 -0.260581E-04 -0.140085E-03  0.000000E+00
  0.151025E-03 -0.186132E-03  0.000000E+00
  0.354200E-03  0.236558E-04  0.000000E+00
  0.255437E-03  0.858030E-03  0.000000E+00
 -0.822922E-03  0.275685E-02  0.000000E+00
 -0.402733E-02  0.561669E-02  0.000000E+00
 -0.110828E-01  0.744200E-02  0.000000E+00
 -0.195420E-01  0.393720E-02  0.000000E+00
 -0.195420E-01 -0.393720E-02  0.000000E+00
 -0.110828E-01 -0.744200E-02  0.000000E+00
 -0.402733E-02 -0.561669E-02  0.000000E+00
 -0.822922E-03 -0.275685E-02  0.000000E+00
  0.255437E-03 -0.858030E-03  0.000000E+00
  0.354200E-03 -0.236558E-04  0.000000E+00
  0.151025E-03  0.186132E-03  0.000000E+00
 -0.260581E-04  0.140085E-03  0.000000E+00
 -0.101398E-03  0.438990E-04  0.000000E+00
 -0.103088E-03 -0.182322E-04  0.000000E+00
 -0.752588E-04 -0.372799E-04  0.000000E+00
 -0.456276E-04 -0.325214E-04  0.000000E+00
 -0.241155E-04 -0.212984E-04  0.000000E+00
 -0.112715E-04 -0.116543E-04  0.000000E+00
 -0.466289E-05 -0.549911E-05  0.000000E+00
 -0.873113E-05  0.121483E-04  0.000000E+00
 -0.219985E-04  0.269011E-04  0.000000E+00
 -0.505868E-04  0.531609E-04  0.000000E+00
 -0.107245E-03  0.922214E-04  0.000000E+00
 -0.207534E-03  0.130716E-03  0.000000E+00
 -0.351081E-03  0.120496E-03  0.000000E+00
 -0.478713E-03 -0.151056E-04  0.000000E+00
 -0.446675E-03 -0.294978E-03  0.000000E+00
 -0.105505E-03 -0.543635E-03  0.000000E+00
  0.474332E-03 -0.290316E-03  0.000000E+00
  0.710974E-03  0.132422E-02  0.000000E+00
 -0.651125E-03  0.551147E-02  0.000000E+00
 -0.669727E-02  0.131973E-01  0.000000E+00
 -0.244638E-01  0.216267E-01  0.000000E+00
 -0.522358E-01  0.135693E-01  0.000000E+00
 -0.522358E-01 -0.135693E-01  0.000000E+00
 -0.244638E-01 -0.216267E-01  0.000000E+00
 -0.669727E-02 -0.131973E-01  0.000000E+00
 -0.651125E-03 -0.551147E-02  0.000000E+00
  0.710974E-03 -0.132422E-02  0.000000E+00
  0.474332E-03  0.290316E-03  0.000000E+00
 -0.105505E-03  0.543635E-03  0.000000E+00
 -0.446675E-03  0.294978E-03  0.000000E+00
 -0.478713E-03  0.151056E-04  0.000000E+00
 -0.351081E-03 -0.120496E-03  0.000000E+00
 -0.207534E-03 -0.130716E-03  0.000000E+00
 -0.107245E-03 -0.922214E-04  0.000000E+00
 -0.505868E-04 -0.531609E-04  0.000000E+00
 -0.219985E-04 -0.269011E-04  0.000000E+00
 -0.873113E-05 -0.121483E-04  0.000000E+00
 -0.140688E-04  0.237159E-04  0.000000E+00
 -0.374895E-04  0.555273E-04  0.000000E+00
 -0.946182E-04  0.120573E-03  0.000000E+00
 -0.228873E-03  0.239255E-03  0.000000E+00
 -0.517935E-03  0.402927E-03  0.000000E+00
 -0.103279E-02  0.490213E-03  0.000000E+00
 -0.168728E-02  0.245547E-03  0.000000E+00
 -0.208716E-02 -0.472923E-03  0.000000E+00
 -0.171077E-02 -0.130099E-02  0.000000E+00
 -0.512142E-03 -0.123523E-02  0.000000E+00
  0.533912E-03  0.137623E-02  0.000000E+00
 -0.579466E-03  0.912710E-02  0.000000E+00
 -0.870561E-02  0.262794E-01  0.000000E+00
 -0.353891E-01  0.528997E-01  0.000000E+00
 -0.845797E-01  0.518925E-01  0.000000E+00
 -0.845797E-01 -0.518925E-01  0.000000E+00
 -0.353891E-01 -0.528997E-01  0.000000E+00
 -0.870561E-02 -0.262794E-01  0.000000E+00
 -0.579466E-03 -0.912710E-02  0.000000E+00
  0.533912E-03 -0.137623E-02  0.000000E+00
 -0.512142E-03  0.123523E-02  0.000000E+00
 -0.171077E-02  0.130099E-02  0.000000E+00
 -0.208716E-02  0.472923E-03  0.000000E+00
 -0.168728E-02 -0.245547E-03  0.000000E+00
 -0.103279E-02 -0.490213E-03  0.000000E+00
 -0.517935E-03 -0.402927E-03  0.000000E+00
 -0.228873E-03 -0.239255E-03  0.000000E+00
 -0.946182E-04 -0.120573E-03  0.000000E+00
 -0.374895E-04 -0.555273E-04  0.000000E+00
 -0.140688E-04 -0.237159E-04  0.000000E+00
 -0.191745E-04  0.407478E-04  0.000000E+00
 -0.547407E-04  0.101977E-03  0.000000E+00
 -0.153339E-03  0.245902E-03  0.000000E+00
 -0.422199E-03  0.556243E-03  0.000000E+00
 -0.109417E-02  0.107825E-02  0.000000E+00
 -0.250256E-02  0.157498E-02  0.000000E+00
 -0.473956E-02  0.137662E-02  0.000000E+00
 -0.694242E-02 -0.175448E-03  0.000000E+00
 -0.742520E-02 -0.252123E-02  0.000000E+00
 -0.562047E-02 -0.331945E-02  0.000000E+00
 -0.329262E-02  0.442361E-03  0.000000E+00
 -0.368095E-02  0.126049E-01  0.000000E+00
 -0.108358E-01  0.406852E-01  0.000000E+00
 -0.287373E-01  0.841706E-01  0.000000E+00
 -0.415478E-01  0.705135E-01  0.000000E+00
 -0.415478E-01 -0.705135E-01  0.000000E+00
 -0.287373E-01 -0.841706E-01  0.000000E+00
 -0.108358E-01 -0.406852E-01  0.000000E+00
 -0.368095E-02 -0.126049E-01  0.000000E+00
 -0.329262E-02 -0.442361E-03  0.000000E+00
 -0.562047E-02  0.331945E-02  0.000000E+00
 -0.742520E-02  0.252123E-02  0.000000E+00
 -0.694242E-02  0.175448E-03  0.000000E+00
 -0.473956E-02 -0.137662E-02  0.000000E+00
 -0.250256E-02 -0.157498E-02  0.000000E+00
 -0.109417E-02 -0.107825E-02  0.000000E+00
 -0.422199E-03 -0.556243E-03  0.000000E+00
 -0.153339E-03 -0.245902E-03  0.000000E+00
 -0.547407E-04 -0.101977E-03  0.000000E+00
 -0.191745E-04 -0.407478E-04  0.000000E+00
 -0.211516E-04  0.608490E-04  0.000000E+00
 -0.648558E-04  0.163460E-03  0.000000E+00
 -0.199280E-03  0.436763E-03  0.000000E+00
 -0.605909E-03  0.110935E-02  0.000000E+00
 -0.175597E-02  0.244703E-02  0.000000E+00
 -0.473515E-02  0.445712E-02  0.000000E+00
 -0.111413E-01  0.626387E-02  0.000000E+00
 -0.199543E-01  0.434529E-02  0.000000E+00
 -0.247932E-01 -0.278847E-02  0.000000E+00
 -0.223518E-01 -0.733502E-02  0.000000E+00
 -0.178708E-01 -0.163956E-02  0.000000E+00
 -0.195991E-01  0.163341E-01  0.000000E+00
 -0.264822E-01  0.478584E-01  0.000000E+00
 -0.203943E-01  0.872637E-01  0.000000E+00
  0.112511E-01  0.655954E-01  0.000000E+00
  0.112511E-01 -0.655954E-01  0.000000E+00
 -0.203943E-01 -0.872637E-01  0.000000E+00
 -0.264822E-01 -0.478584E-01  0.000000E+00
 -0.195991E-01 -0.163341E-01  0.000000E+00
 -0.178708E-01  0.163956E-02  0.000000E+00
 -0.223518E-01  0.733502E-02  0.000000E+00
 -0.247932E-01  0.278847E-02  0.000000E+00
 -0.199543E-01 -0.434529E-02  0.000000E+00
 -0.111413E-01 -0.626387E-02  0.000000E+00
 -0.473515E-02 -0.445712E-02  0.000000E+00
 -0.175597E-02 -0.244703E-02  0.000000E+00
 -0.605909E-03 -0.110935E-02  0.000000E+00
 -0.199280E-03 -0.436763E-03  0.000000E+00
 -0.648558E-04 -0.163460E-03  0.000000E+00
 -0.211516E-04 -0.608490E-04  0.000000E+00
 -0.167793E-04  0.771181E-04  0.000000E+00
 -0.544488E-04  0.221201E-03  0.000000E+00
 -0.175803E-03  0.645210E-03  0.000000E+00
 -0.555735E-03  0.180227E-02  0.000000E+00
 -0.178850E-02  0.453830E-02  0.000000E+00
 -0.628359E-02  0.107628E-01  0.000000E+00
 -0.202339E-01  0.219899E-01  0.000000E+00
 -0.474358E-01  0.254521E-01  0.000000E+00
 -0.669240E-01  0.167065E-02  0.000000E+00
 -0.625282E-01 -0.148798E-01  0.000000E+00
 -0.516430E-01 -0.399523E-02  0.000000E+00
 -0.590084E-01  0.270486E-01  0.000000E+00
 -0.745040E-01  0.523704E-01  0.000000E+00
 -0.516584E-01  0.306469E-01  0.000000E+00
  0.694943E-01 -0.836516E-02  0.000000E+00
  0.694943E-01  0.836516E-02  0.000000E+00
 -0.516584E-01 -0.306469E-01  0.000000E+00
 -0.745040E-01 -0.523704E-01  0.000000E+00
 -0.590084E-01 -0.270486E-01  0.000000E+00
 -0.516430E-01  0.399523E-02  0.000000E+00
 -0.625282E-01  0.148798E-01  0.000000E+00
 -0.669240E-01 -0.167065E-02  0.000000E+00
 -0.474358E-01 -0.254521E-01  0.000000E+00
 -0.202339E-01 -0.219899E-01  0.000000E+00
 -0.628359E-02 -0.107628E-01  0.000000E+00
 -0.178850E-02 -0.453830E-02  0.000000E+00
 -0.555735E-03 -0.180227E-02  0.000000E+00
 -0.175803E-03 -0.645210E-03  0.000000E+00
 -0.544488E-04 -0.221201E-03  0.000000E+00
 -0.167793E-04 -0.771181E-04  0.000000E+00
 -0.526662E-05  0.796815E-04  0.000000E+00
 -0.169670E-04  0.241232E-03  0.000000E+00
 -0.467351E-04  0.752740E-03  0.000000E+00
 -0.104405E-03  0.225898E-02  0.000000E+00
 -0.423237E-03  0.632531E-02  0.000000E+00
 -0.336535E-02  0.181267E-01  0.000000E+00
 -0.173724E-01  0.474216E-01  0.000000E+00
 -0.578762E-01  0.754346E-01  0.000000E+00
 -0.983749E-01  0.865211E-02  0.000000E+00
 -0.971721E-01 -0.275445E-01  0.000000E+00
 -0.778834E-01 -0.120812E-01  0.000000E+00
 -0.884459E-01  0.519878E-01  0.000000E+00
 -0.102984E+00  0.566825E-01  0.000000E+00
 -0.992066E-01 -0.222628E-01  0.000000E+00
  0.574342E-03  0.217352E+00  0.000000E+00
  0.574342E-03 -0.217352E+00  0.000000E+00
 -0.992066E-01  0.222628E-01  0.000000E+00
 -0.102984E+00 -0.566825E-01  0.000000E+00
 -0.884459E-01 -0.519878E-01  0.000000E+00
 -0.778834E-01  0.120812E-01  0.000000E+00
 -0.971721E-01  0.275445E-01  0.000000E+00
 -0.983749E-01 -0.865211E-02  0.000000E+00
 -0.578762E-01 -0.754346E-01  0.000000E+00
 -0.173724E-01 -0.474216E-01  0.000000E+00
 -0.336535E-02 -0.181267E-01  0.000000E+00
 -0.423237E-03 -0.632531E-02  0.000000E+00
 -0.104405E-03 -0.225898E-02  0.000000E+00
 -0.467351E-04 -0.752740E-03  0.000000E+00
 -0.169670E-04 -0.241232E-03  0.000000E+00
 -0.526662E-05 -0.796815E-04  0.000000E+00
  0.927327E-05  0.619410E-04  0.000000E+00
  0.338229E-04  0.196836E-03  0.000000E+00
  0.134482E-03  0.650305E-03  0.000000E+00
  0.532903E-03  0.206294E-02  0.000000E+00
  0.173642E-02  0.608522E-02  0.000000E+00
  0.397435E-02  0.184070E-01  0.000000E+00
  0.849516E-02  0.520306E-01  0.000000E+00
  0.286211E-01  0.964141E-01  0.000000E+00
  0.122047E-01  0.479731E-01  0.000000E+00
 -0.277098E-01 -0.326214E-01  0.000000E+00
  0.220588E-01 -0.510253E-01  0.000000E+00
 -0.760609E-02  0.113110E+00  0.000000E+00
 -0.883834E-02  0.329117E-01  0.000000E+00
  0.406295E-01 -0.506058E-01  0.000000E+00
  0.202172E-01 -0.701391E-01  0.000000E+00
  0.202172E-01  0.701391E-01  0.000000E+00
  0.406295E-01  0.506058E-01  0.000000E+00
 -0.883834E-02 -0.329117E-01  0.000000E+00
 -0.760609E-02 -0.113110E+00  0.000000E+00
  0.220588E-01  0.510253E-01  0.000000E+00
 -0.277098E-01  0.326214E-01  0.000000E+00
  0.122047E-01 -0.479731E-01  0.000000E+00
  0.286211E-01 -0.964141E-01  0.000000E+00
  0.849516E-02 -0.520306E-01  0.000000E+00
  0.397435E-02 -0.184070E-01  0.000000E+00
  0.173642E-02 -0.608522E-02  0.000000E+00
  0.532903E-03 -0.206294E-02  0.000000E+00
  0.134482E-03 -0.650305E-03  0.000000E+00
  0.338229E-04 -0.196836E-03  0.000000E+00
  0.927327E-05 -0.619410E-04  0.000000E+00
  0.191991E-04  0.274339E-04  0.000000E+00
  0.686936E-04  0.970183E-04  0.000000E+00
  0.251896E-03  0.357483E-03  0.000000E+00
  0.898447E-03  0.124114E-02  0.000000E+00
  0.288293E-02  0.384573E-02  0.000000E+00
  0.799477E-02  0.114182E-01  0.000000E+00
  0.215605E-01  0.314406E-01  0.000000E+00
  0.508013E-01  0.626826E-01  0.000000E+00
  0.745969E-01  0.671502E-01  0.000000E+00
  0.717450E-01 -0.280124E-01  0.000000E+00
 -0.261659E+00  0.758859E+00  0.000000E+00
 -0.452037E-01 -0.696454E-01  0.000000E+00
  0.955165E-01 -0.493782E-02  0.000000E+00
  0.103452E+00 -0.591066E-01  0.000000E+00
  0.821778E-01 -0.330326E-01  0.000000E+00
  0.821778E-01  0.330326E-01  0.000000E+00
  0.103452E+00  0.591066E-01  0.000000E+00
  0.955165E-01  0.493782E-02  0.000000E+00
 -0.452037E-01  0.696454E-01  0.000000E+00
 -0.261659E+00 -0.758859E+00  0.000000E+00
  0.717450E-01  0.280124E-01  0.000000E+00
  0.745969E-01 -0.671502E-01  0.000000E+00
  0.508013E-01 -0.626826E-01  0.000000E+00
  0.215605E-01 -0.314406E-01  0.000000E+00
  0.799477E-02 -0.114182E-01  0.000000E+00
  0.288293E-02 -0.384573E-02  0.000000E+00
  0.898447E-03 -0.124114E-02  0.000000E+00
  0.251896E-03 -0.357483E-03  0.000000E+00
  0.686936E-04 -0.970183E-04  0.000000E+00
  0.191991E-04 -0.274339E-04  0.000000E+00
  0.185915E-04 -0.100368E-04  0.000000E+00
  0.658363E-04 -0.133440E-04  0.000000E+00
  0.232419E-03  0.239436E-04  0.000000E+00
  0.780049E-03  0.268621E-03  0.000000E+00
  0.237343E-02  0.125043E-02  0.000000E+00
  0.639074E-02  0.446569E-02  0.000000E+00
  0.157023E-01  0.137040E-01  0.000000E+00
  0.326785E-01  0.341388E-01  0.000000E+00
  0.451289E-01  0.600748E-01  0.000000E+00
  0.151682E-02  0.544854E-01  0.000000E+00
 -0.125894E+00  0.545418E-01  0.000000E+00
 -0.785605E-01 -0.140713E-01  0.000000E+00
  0.390576E-01 -0.576120E-01  0.000000E+00
  0.572743E-01 -0.471726E-01  0.000000E+00
  0.441000E-01 -0.165081E-01  0.000000E+00
  0.441000E-01  0.165081E-01  0.000000E+00
  0.572743E-01  0.471726E-01  0.000000E+00
  0.390576E-01  0.576120E-01  0.000000E+00
 -0.785605E-01  0.140713E-01  0.000000E+00
 -0.125894E+00 -0.545418E-01  0.000000E+00
  0.151682E-02 -0.544854E-01  0.000000E+00
  0.451289E-01 -0.600748E-01  0.000000E+00
  0.326785E-01 -0.341388E-01  0.000000E+00
  0.157023E-01 -0.137040E-01  0.000000E+00
  0.639074E-02 -0.446569E-02  0.000000E+00
  0.237343E-02 -0.125043E-02  0.000000E+00
  0.780049E-03 -0.268621E-03  0.000000E+00
  0.232419E-03 -0.239436E-04  0.000000E+00
  0.658363E-04  0.133440E-04  0.000000E+00
  0.185915E-04  0.100368E-04  0.000000E+00
  0.761001E-05 -0.340058E-04  0.000000E+00
  0.267694E-04 -0.833853E-04  0.000000E+00
  0.926371E-04 -0.186906E-03  0.000000E+00
  0.300688E-03 -0.351125E-03  0.000000E+00
  0.880109E-03 -0.377263E-03  0.000000E+00
  0.227695E-02  0.687068E-03  0.000000E+00
  0.520059E-02  0.569149E-02  0.000000E+00
  0.964871E-02  0.224413E-01  0.000000E+00
  0.111407E-01  0.644578E-01  0.000000E+00
 -0.494421E-02  0.114394E+00  0.000000E+00
 -0.293637E-01  0.602492E-01  0.000000E+00
 -0.215278E-01 -0.939940E-01  0.000000E+00
  0.453527E-02 -0.994661E-01  0.000000E+00
  0.128040E-01 -0.438519E-01  0.000000E+00
  0.101815E-01 -0.101255E-01  0.000000E+00
  0.101815E-01  0.101255E-01  0.000000E+00
  0.128040E-01  0.438519E-01  0.000000E+00
  0.453527E-02  0.994661E-01  0.000000E+00
 -0.215278E-01  0.939940E-01  0.000000E+00
 -0.293637E-01 -0.602492E-01  0.000000E+00
 -0.494421E-02 -0.114394E+00  0.000000E+00
  0.111407E-01 -0.644578E-01  0.000000E+00
  0.964871E-02 -0.224413E-01  0.000000E+00
  0.520059E-02 -0.569149E-02  0.000000E+00
  0.227695E-02 -0.687068E-03  0.000000E+00
  0.880109E-03  0.377263E-03  0.000000E+00
  0.300688E-03  0.351125E-03  0.000000E+00
  0.926371E-04  0.186906E-03  0.000000E+00
  0.267694E-04  0.833853E-04  0.000000E+00
  0.761001E-05  0.340058E-04  0.000000E+00
 -0.761001E-05 -0.340058E-04  0.000000E+00
 -0.267694E-04 -0.833853E-04  0.000000E+00
 -0.926371E-04 -0.186906E-03  0.000000E+00
 -0.300688E-03 -0.351125E-03  0.000000E+00
 -0.880109E-03 -0.377263E-03  0.000000E+00
 -0.227695E-02  0.687068E-03  0.000000E+00
 -0.520059E-02  0.569149E-02  0.000000E+00
 -0.964871E-02  0.224413E-01  0.000000E+00
 -0.111407E-01  0.644578E-01  0.000000E+00
  0.494421E-02  0.114394E+00  0.000000E+00
  0.293637E-01  0.602492E-01  0.000000E+00
  0.215278E-01 -0.939940E-01  0.000000E+00
 -0.453527E-02 -0.994661E-01  0.000000E+00
 -0.128040E-01 -0.438519E-01  0.000000E+00
 -0.101815E-01 -0.101255E-01  0.000000E+00
 -0.101815E-01  0.101255E-01  0.000000E+00
 -0.128040E-01  0.438519E-01  0.000000E+00
 -0.453527E-02  0.994661E-01  0.000000E+00
  0.215278E-01  0.939940E-01  0.000000E+00
  0.293637E-01 -0.602492E-01  0.000000E+00
  0.494421E-02 -0.114394E+00  0.000000E+00
 -0.111407E-01 -0.644578E-01  0.000000E+00
 -0.964871E-02 -0.224413E-01  0.000000E+00
 -0.520059E-02 -0.569149E-02  0.000000E+00
 -0.227695E-02 -0.687068E-03  0.000000E+00
 -0.880109E-03  0.377263E-03  0.000000E+00
 -0.300688E-03  0.351125E-03  0.000000E+00
 -0.926371E-04  0.186906E-03  0.000000E+00
 -0.267694E-04  0.833853E-04  0.000000E+00
 -0.761001E-05  0.340058E-04  0.000000E+00
 -0.185915E-04 -0.100368E-04  0.000000E+00
 -0.658363E-04 -0.133440E-04  0.000000E+00
 -0.232419E-03  0.239436E-04  0.000000E+00
 -0.780049E-03  0.268621E-03  0.000000E+00
 -0.237343E-02  0.125043E-02  0.000000E+00
 -0.639074E-02  0.446569E-02  0.000000E+00
 -0.157023E-01  0.137040E-01  0.000000E+00
 -0.326785E-01  0.341388E-01  0.000000E+00
 -0.451289E-01  0.600748E-01  0.000000E+00
 -0.151682E-02  0.544854E-01  0.000000E+00
  0.125894E+00  0.545418E-01  0.000000E+00
  0.785605E-01 -0.140713E-01  0.000000E+00
 -0.390576E-01 -0.576120E-01  0.000000E+00
 -0.572743E-01 -0.471726E-01  0.000000E+00
 -0.441000E-01 -0.165081E-01  0.000000E+00
 -0.441000E-01  0.165081E-01  0.000000E+00
 -0.572743E-01  0.471726E-01  0.000000E+00
 -0.390576E-01  0.576120E-01  0.000000E+00
  0.785605E-01  0.140713E-01  0.000000E+00
  0.125894E+00 -0.545418E-01  0.000000E+00
 -0.151682E-02 -0.544854E-01  0.000000E+00
 -0.451289E-01 -0.600748E-01  0.000000E+00
 -0.326785E-01 -0.341388E-01  0.000000E+00
 -0.157023E-01 -0.137040E-01  0.000000E+00
 -0.639074E-02 -0.446569E-02  0.000000E+00
 -0.237343E-02 -0.125043E-02  0.000000E+00
 -0.780049E-03 -0.268621E-03  0.000000E+00
 -0.232419E-03 -0.239436E-04  0.000000E+00
 -0.658363E-04  0.133440E-04  0.000000E+00
 -0.185915E-04  0.100368E-04  0.000000E+00
 -0.191991E-04  0.274339E-04  0.000000E+00
 -0.686936E-04  0.970183E-04  0.000000E+00
 -0.251896E-03  0.357483E-03  0.000000E+00
 -0.898447E-03  0.124114E-02  0.000000E+00
 -0.288293E-02  0.384573E-02  0.000000E+00
 -0.799477E-02  0.114182E-01  0.000000E+00
 -0.215605E-01  0.314406E-01  0.000000E+00
 -0.508013E-01  0.626826E-01  0.000000E+00
 -0.745969E-01  0.671502E-01  0.000000E+00
 -0.717450E-01 -0.280124E-01  0.000000E+00
  0.261659E+00  0.758859E+00  0.000000E+00
  0.452037E-01 -0.696454E-01  0.000000E+00
 -0.955165E-01 -0.493782E-02  0.000000E+00
 -0.103452E+00 -0.591066E-01  0.000000E+00
 -0.821778E-01 -0.330326E-01  0.000000E+00
 -0.821778E-01  0.330326E-01  0.000000E+00
 -0.103452E+00  0.591066E-01  0.000000E+00
 -0.955165E-01  0.493782E-02  0.000000E+00
  0.452037E-01  0.696454E-01  0.000000E+00
  0.261659E+00 -0.758859E+00  0.000000E+00
 -0.717450E-01  0.280124E-01  0.000000E+00
 -0.745969E-01 -0.671502E-01  0.000000E+00
 -0.508013E-01 -0.626826E-01  0.000000E+00
 -0.215605E-01 -0.314406E-01  0.000000E+00
 -0.799477E-02 -0.114182E-01  0.000000E+00
 -0.288293E-02 -0.384573E-02  0.000000E+00
 -0.898447E-03 -0.124114E-02  0.000000E+00
 -0.251896E-03 -0.357483E-03  0.000000E+00
 -0.686936E-04 -0.970183E-04  0.000000E+00
 -0.191991E-04 -0.274339E-04  0.000000E+00
 -0.927327E-05  0.619410E-04  0.000000E+00
 -0.338229E-04  0.196836E-03  0.000000E+00
 -0.134482E-03  0.650305E-03  0.000000E+00
 -0.532903E-03  0.206294E-02  0.000000E+00
 -0.173642E-02  0.608522E-02  0.000000E+00
 -0.397435E-02  0.184070E-01  0.000000E+00
 -0.849516E-02  0.520306E-01  0.000000E+00
 -0.286211E-01  0.964141E-01  0.000000E+00
 -0.122047E-01  0.479731E-01  0.000000E+00
  0.277098E-01 -0.326214E-01  0.000000E+00
 -0.220588E-01 -0.510253E-01  0.000000E+00
  0.760609E-02  0.113110E+00  0.000000E+00
  0.883834E-02  0.329117E-01  0.000000E+00
 -0.406295E-01 -0.506058E-01  0.000000E+00
 -0.202172E-01 -0.701391E-01  0.000000E+00
 -0.202172E-01  0.701391E-01  0.000000E+00
 -0.406295E-01  0.506058E-01  0.000000E+00
  0.883834E-02 -0.329117E-01  0.000000E+00
  0.760609E-02 -0.113110E+00  0.000000E+00
 -0.220588E-01  0.510253E-01  0.000000E+00
  0.277098E-01  0.326214E-01  0.000000E+00
 -0.122047E-01 -0.479731E-01  0.000000E+00
 -0.286211E-01 -0.964141E-01  0.000000E+00
 -0.849516E-02 -0.520306E-01  0.000000E+00
 -0.397435E-02 -0.184070E-01  0.000000E+00
 -0.173642E-02 -0.608522E-02  0.000000E+00
 -0.532903E-03 -0.206294E-02  0.000000E+00
 -0.134482E-03 -0.650305E-03  0.000000E+00
 -0.338229E-04 -0.196836E-03  0.000000E+00
 -0.927327E-05 -0.619410E-04  0.000000E+00
  0.526662E-05  0.796815E-04  0.000000E+00
  0.169670E-04  0.241232E-03  0.000000E+00
  0.467351E-04  0.752740E-03  0.000000E+00
  0.104405E-03  0.225898E-02  0.000000E+00
  0.423237E-03  0.632531E-02  0.000000E+00
  0.336535E-02  0.181267E-01  0.000000E+00
  0.173724E-01  0.474216E-01  0.000000E+00
  0.578762E-01  0.754346E-01  0.000000E+00
  0.983749E-01  0.865211E-02  0.000000E+00
  0.971721E-01 -0.275445E-01  0.000000E+00
  0.778834E-01 -0.120812E-01  0.000000E+00
  0.884459E-01  0.519878E-01  0.000000E+00
  0.102984E+00  0.566825E-01  0.000000E+00
  0.992066E-01 -0.222628E-01  0.000000E+00
 -0.574342E-03  0.217352E+00  0.000000E+00
 -0.574342E-03 -0.217352E+00  0.000000E+00
  0.992066E-01  0.222628E-01  0.000000E+00
  0.102984E+00 -0.566825E-01  0.000000E+00
  0.884459E-01 -0.519878E-01  0.000000E+00
  0.778834E-01  0.120812E-01  0.000000E+00
  0.971721E-01  0.275445E-01  0.000000E+00
  0.983749E-01 -0.865211E-02  0.000000E+00
  0.578762E-01 -0.754346E-01  0.000000E+00
  0.173724E-01 -0.474216E-01  0.000000E+00
  0.336535E-02 -0.181267E-01  0.000000E+00
  0.423237E-03 -0.632531E-02  0.000000E+00
  0.104405E-03 -0.225898E-02  0.000000E+00
  0.467351E-04 -0.752740E-03  0.000000E+00
  0.169670E-04 -0.241232E-03  0.000000E+00
  0.526662E-05 -0.796815E-04  0.000000E+00
  0.167793E-04  0.771181E-04  0.000000E+00
  0.544488E-04  0.221201E-03  0.000000E+00
  0.175803E-03  0.645210E-03  0.000000E+00
  0.555735E-03  0.180227E-02  0.000000E+00
  0.178850E-02  0.453830E-02  0.000000E+00
  0.628359E-02  0.107628E-01  0.000000E+00
  0.202339E-01  0.219899E-01  0.000000E+00
  0.474358E-01  0.254521E-01  0.000000E+00
  0.669240E-01  0.167065E-02  0.000000E+00
  0.625282E-01 -0.148798E-01  0.000000E+00
  0.516430E-01 -0.399523E-02  0.000000E+00
  0.590084E-01  0.270486E-01  0.000000E+00
  0.745040E-01  0.523704E-01  0.000000E+00
  0.516584E-01  0.306469E-01  0.000000E+00
 -0.694943E-01 -0.836516E-02  0.000000E+00
 -0.694943E-01  0.836516E-02  0.000000E+00
  0.516584E-01 -0.306469E-01  0.000000E+00
  0.745040E-01 -0.523704E-01  0.000000E+00
  0.590084E-01 -0.270486E-01  0.000000E+00
  0.516430E-01  0.399523E-02  0.000000E+00
  0.625282E-01  0.148798E-01  0.000000E+00
  0.669240E-01 -0.167065E-02  0.000000E+00
  0.474358E-01 -0.254521E-01  0.000000E+00
  0.202339E-01 -0.219899E-01  0.000000E+00
  0.628359E-02 -0.107628E-01  0.000000E+00
  0.178850E-02 -0.453830E-02  0.000000E+00
  0.555735E-03 -0.180227E-02  0.000000E+00
  0.175803E-03 -0.645210E-03  0.000000E+00
  0.544488E-04 -0.221201E-03  0.000000E+00
  0.167793E-04 -0.771181E-04  0.000000E+00
  0.211516E-04  0.608490E-04  0.000000E+00
  0.648558E-04  0.163460E-03  0.000000E+00
  0.199280E-03  0.436763E-03  0.000000E+00
  0.605909E-03  0.110935E-02  0.000000E+00
  0.175597E-02  0.244703E-02  0.000000E+00
  0.473515E-02  0.445712E-02  0.000000E+00
  0.111413E-01  0.626387E-02  0.000000E+00
  0.199543E-01  0.434529E-02  0.000000E+00
  0.247932E-01 -0.278847E-02  0.000000E+00
  0.223518E-01 -0.733502E-02  0.000000E+00
  0.178708E-01 -0.163956E-02  0.000000E+00
  0.195991E-01  0.163341E-01  0.000000E+00
  0.264822E-01  0.478584E-01  0.000000E+00
  0.203943E-01  0.872637E-01  0.000000E+00
 -0.112511E-01  0.655954E-01  0.000000E+00
 -0.112511E-01 -0.655954E-01  0.000000E+00
  0.203943E-01 -0.872637E-01  0.000000E+00
  0.264822E-01 -0.478584E-01  0.000000E+00
  0.195991E-01 -0.163341E-01  0.000000E+00
  0.178708E-01  0.163956E-02  0.000000E+00
  0.223518E-01  0.733502E-02  0.000000E+00
  0.247932E-01  0.278847E-02  0.000000E+00
  0.199543E-01 -0.434529E-02  0.000000E+00
  0.111413E-01 -0.626387E-02  0.000000E+00
  0.473515E-02 -0.445712E-02  0.000000E+00
  0.175597E-02 -0.244703E-02  0.000000E+00
  0.605909E-03 -0.110935E-02  0.000000E+00
  0.199280E-03 -0.436763E-03  0.000000E+00
  0.648558E-04 -0.163460E-03  0.000000E+00
  0.211516E-04 -0.608490E-04  0.000000E+00
  0.191745E-04  0.407478E-04  0.000000E+00
  0.547407E-04  0.101977E-03  0.000000E+00
  0.153339E-03  0.245902E-03  0.000000E+00
  0.422199E-03  0.556243E-03  0.000000E+00
  0.109417E-02  0.107825E-02  0.000000E+00
  0.250256E-02  0.157498E-02  0.000000E+00
  0.473956E-02  0.137662E-02  0.000000E+00
  0.694242E-02 -0.175448E-03  0.000000E+00
  0.742520E-02 -0.252123E-02  0.000000E+00
  0.562047E-02 -0.331945E-02  0.000000E+00
  0.329262E-02  0.442361E-03  0.000000E+00
  0.368095E-02  0.126049E-01  0.000000E+00
  0.108358E-01  0.406852E-01  0.000000E+00
  0.287373E-01  0.841706E-01  0.000000E+00
  0.415478E-01  0.705135E-01  0.000000E+00
  0.415478E-01 -0.705135E-01  0.000000E+00
  0.287373E-01 -0.841706E-01  0.000000E+00
  0.108358E-01 -0.406852E-01  0.000000E+00
  0.368095E-02 -0.126049E-01  0.000000E+00
  0.329262E-02 -0.442361E-03  0.000000E+00
  0.562047E-02  0.331945E-02  0.000000E+00
  0.742520E-02  0.252123E-02  0.000000E+00
  0.694242E-02  0.175448E-03  0.000000E+00
  0.473956E-02 -0.137662E-02  0.000000E+00