<?xml version="1.0"?>
 <VTKFile type="ImageData" version="0.1" byte_order="LittleEndian">
   <ImageData WholeExtent="           0          29           0          29
           0          29 " Origin="  -8.00000000000000     
  -8.00000000000000       -8.00000000000000      " Spacing="
  0.551724137931034       0.551724137931034       0.551724137931034      ">
   <Piece Extent="           0          29           0          29           0
          29 ">
   <PointData Scalars="scalars">
   <DataArray Name="scalars" type="Float64" 
 NumberOfComponents="1" Format="ascii">
  0.573776E-27
  0.658712E-26  0.578892E-25  0.374378E-24  0.171497E-23
  0.518239E-23  0.862869E-23  0.391831E-23  0.189626E-22
  0.273460E-21  0.133786E-20  0.387312E-20  0.783348E-20
  0.120026E-19  0.146548E-19  0.146548E-19  0.120026E-19
  0.783348E-20  0.387312E-20  0.133786E-20  0.273460E-21
  0.189626E-22  0.391831E-23  0.862869E-23  0.518239E-23
  0.171497E-23  0.374378E-24  0.578892E-25  0.658712E-26
  0.573776E-27  0.302506E-26  0.306870E-25  0.234066E-24
  0.123939E-23  0.397330E-23  0.510902E-23  0.289095E-23
  0.180981E-21  0.175329E-20  0.857368E-20  0.272565E-19
  0.621510E-19  0.107800E-18  0.149409E-18  0.173199E-18
  0.173199E-18  0.149409E-18  0.107800E-18  0.621510E-19
  0.272565E-19  0.857368E-20  0.175329E-20  0.180981E-21
  0.289095E-23  0.510902E-23  0.397330E-23  0.123939E-23
  0.234066E-24  0.306870E-25  0.302506E-26  0.129219E-25
  0.105851E-24  0.627255E-24  0.240679E-23  0.772008E-23
  0.811896E-22  0.100725E-20  0.773322E-20  0.390590E-19
  0.138840E-18  0.362656E-18  0.719295E-18  0.112053E-17
  0.143207E-17  0.158457E-17  0.158457E-17  0.143207E-17
  0.112053E-17  0.719295E-18  0.362656E-18  0.138840E-18
  0.390590E-19  0.773322E-20  0.100725E-20  0.811896E-22
  0.772008E-23  0.240679E-23  0.627255E-24  0.105851E-24
  0.129219E-25  0.667089E-25  0.541428E-24  0.403758E-23
  0.326392E-22  0.309860E-21  0.282883E-20  0.206582E-19
  0.113436E-18  0.465010E-18  0.143436E-17  0.336972E-17
  0.612691E-17  0.884388E-17  0.105920E-16  0.112488E-16
  0.112488E-16  0.105920E-16  0.884388E-17  0.612691E-17
  0.336972E-17  0.143436E-17  0.465010E-18  0.113436E-18
  0.206582E-19  0.282883E-20  0.309860E-21  0.326392E-22
  0.403758E-23  0.541428E-24  0.667089E-25  0.498792E-24
  0.534017E-23  0.542470E-22  0.518141E-21  0.450694E-20
  0.336936E-19  0.204871E-18  0.979192E-18  0.362230E-17
  0.103266E-16  0.227405E-16  0.390274E-16  0.532989E-16
  0.606024E-16  0.621038E-16  0.621038E-16  0.606024E-16
  0.532989E-16  0.390274E-16  0.227405E-16  0.103266E-16
  0.362230E-17  0.979192E-18  0.204871E-18  0.336936E-19
  0.450694E-20  0.518141E-21  0.542470E-22  0.534017E-23
  0.498792E-24  0.359591E-23  0.444526E-22  0.478047E-21
  0.442554E-20  0.351590E-19  0.235779E-18  0.129919E-17
  0.573496E-17  0.199313E-16  0.540367E-16  0.113984E-15
  0.187896E-15  0.246291E-15  0.268679E-15  0.267058E-15
  0.267058E-15  0.268679E-15  0.246291E-15  0.187896E-15
  0.113984E-15  0.540367E-16  0.199313E-16  0.573496E-17
  0.129919E-17  0.235779E-18  0.351590E-19  0.442554E-20
  0.478047E-21  0.444526E-22  0.359591E-23  0.200583E-22
  0.263000E-21  0.281621E-20  0.248365E-19  0.183190E-18
  0.113367E-17  0.581339E-17  0.242140E-16  0.804232E-16
  0.210284E-15  0.430037E-15  0.688395E-15  0.874900E-15
  0.923597E-15  0.894879E-15  0.894879E-15  0.923597E-15
  0.874900E-15  0.688395E-15  0.430037E-15  0.210284E-15
  0.804232E-16  0.242140E-16  0.581339E-17  0.113367E-17
  0.183190E-18  0.248365E-19  0.281621E-20  0.263000E-21
  0.200583E-22  0.855143E-22  0.116203E-20  0.122707E-19
  0.103066E-18  0.708266E-18  0.405720E-17  0.194028E-16
  0.764571E-16  0.243646E-15  0.617590E-15  0.123185E-14
  0.192756E-14  0.239227E-14  0.246119E-14  0.233564E-14
  0.233564E-14  0.246119E-14  0.239227E-14  0.192756E-14
  0.123185E-14  0.617590E-15  0.243646E-15  0.764571E-16
  0.194028E-16  0.405720E-17  0.708266E-18  0.103066E-18
  0.122707E-19  0.116203E-20  0.855143E-22  0.286287E-21
  0.406318E-20  0.426605E-19  0.343477E-18  0.220049E-17
  0.115756E-16  0.509152E-16  0.187230E-15  0.567197E-15
  0.138804E-14  0.269979E-14  0.413957E-14  0.503900E-14
  0.507952E-14  0.474097E-14  0.474097E-14  0.507952E-14
  0.503900E-14  0.413957E-14  0.269979E-14  0.138804E-14
  0.567197E-15  0.187230E-15  0.509152E-16  0.115756E-16
  0.220049E-17  0.343477E-18  0.426605E-19  0.406318E-20
  0.286287E-21  0.777223E-21  0.117773E-19  0.125081E-18
  0.980136E-18  0.590806E-17  0.284324E-16  0.112799E-15
  0.376118E-15  0.105408E-14  0.244304E-14  0.458465E-14
  0.685891E-14  0.818771E-14  0.810600E-14  0.746131E-14
  0.746131E-14  0.810600E-14  0.818771E-14  0.685891E-14
  0.458465E-14  0.244304E-14  0.105408E-14  0.376118E-15
  0.112799E-15  0.284324E-16  0.590806E-17  0.980136E-18
  0.125081E-18  0.117773E-19  0.777223E-21  0.176397E-20
  0.291507E-19  0.318392E-18  0.247618E-17  0.143518E-16
  0.642210E-16  0.229487E-15  0.676392E-15  0.168243E-14
  0.354320E-14  0.622010E-14  0.890878E-14  0.103226E-13
  0.998682E-14  0.904650E-14  0.904650E-14  0.998682E-14
  0.103226E-13  0.890878E-14  0.622010E-14  0.354320E-14
  0.168243E-14  0.676392E-15  0.229487E-15  0.642210E-16
  0.143518E-16  0.247618E-17  0.318392E-18  0.291507E-19
  0.176397E-20  0.342540E-20  0.620980E-19  0.702159E-18
  0.549802E-17  0.313765E-16  0.134742E-15  0.447190E-15
  0.118001E-14  0.255449E-14  0.466071E-14  0.723903E-14
  0.947125E-14  0.102961E-13  0.949775E-14  0.833116E-14
  0.833116E-14  0.949775E-14  0.102961E-13  0.947125E-14
  0.723903E-14  0.466071E-14  0.255449E-14  0.118001E-14
  0.447190E-15  0.134742E-15  0.313765E-16  0.549802E-17
  0.702159E-18  0.620980E-19  0.342540E-20  0.573770E-20
  0.112517E-18  0.131140E-17  0.103871E-16  0.592116E-16
  0.250490E-15  0.802817E-15  0.198608E-14  0.387699E-14
  0.613695E-14  0.809706E-14  0.904989E-14  0.857786E-14
  0.701934E-14  0.561881E-14  0.561881E-14  0.701934E-14
  0.857786E-14  0.904989E-14  0.809706E-14  0.613695E-14
  0.387699E-14  0.198608E-14  0.802817E-15  0.250490E-15
  0.592116E-16  0.103871E-16  0.131140E-17  0.112517E-18
  0.573770E-20  0.821740E-20  0.169867E-18  0.202067E-17
  0.161584E-16  0.924203E-16  0.389944E-15  0.123574E-14
  0.297952E-14  0.553418E-14  0.804029E-14  0.931059E-14
  0.874479E-14  0.669801E-14  0.419474E-14  0.248861E-14
  0.248861E-14  0.419474E-14  0.669801E-14  0.874479E-14
  0.931059E-14  0.804029E-14  0.553418E-14  0.297952E-14
  0.123574E-14  0.389944E-15  0.924203E-16  0.161584E-16
  0.202067E-17  0.169867E-18  0.821740E-20  0.989434E-20
  0.209774E-18  0.252011E-17  0.202539E-16  0.116145E-15
  0.490285E-15  0.155002E-14  0.370984E-14  0.677790E-14
  0.953067E-14  0.103989E-13  0.882445E-14  0.568239E-14
  0.248406E-14  0.527769E-15  0.527769E-15  0.248406E-14
  0.568239E-14  0.882445E-14  0.103989E-13  0.953067E-14
  0.677790E-14  0.370984E-14  0.155002E-14  0.490285E-15
  0.116145E-15  0.202539E-16  0.252011E-17  0.209774E-18
  0.989434E-20  0.989434E-20  0.209774E-18  0.252011E-17
  0.202539E-16  0.116145E-15  0.490285E-15  0.155002E-14
  0.370984E-14  0.677790E-14  0.953067E-14  0.103989E-13
  0.882445E-14  0.568239E-14  0.248406E-14  0.527769E-15
  0.527769E-15  0.248406E-14  0.568239E-14  0.882445E-14
  0.103989E-13  0.953067E-14  0.677790E-14  0.370984E-14
  0.155002E-14  0.490285E-15  0.116145E-15  0.202539E-16
  0.252011E-17  0.209774E-18  0.989434E-20  0.821740E-20
  0.169867E-18  0.202067E-17  0.161584E-16  0.924203E-16
  0.389944E-15  0.123574E-14  0.297952E-14  0.553418E-14
  0.804029E-14  0.931059E-14  0.874479E-14  0.669801E-14
  0.419474E-14  0.248861E-14  0.248861E-14  0.419474E-14
  0.669801E-14  0.874479E-14  0.931059E-14  0.804029E-14
  0.553418E-14  0.297952E-14  0.123574E-14  0.389944E-15
  0.924203E-16  0.161584E-16  0.202067E-17  0.169867E-18
  0.821740E-20  0.573770E-20  0.112517E-18  0.131140E-17
  0.103871E-16  0.592116E-16  0.250490E-15  0.802817E-15
  0.198608E-14  0.387699E-14  0.613695E-14  0.809706E-14
  0.904989E-14  0.857786E-14  0.701934E-14  0.561881E-14
  0.561881E-14  0.701934E-14  0.857786E-14  0.904989E-14
  0.809706E-14  0.613695E-14  0.387699E-14  0.198608E-14
  0.802817E-15  0.250490E-15  0.592116E-16  0.103871E-16
  0.131140E-17  0.112517E-18  0.573770E-20  0.342540E-20
  0.620980E-19  0.702159E-18  0.549802E-17  0.313765E-16
  0.134742E-15  0.447190E-15  0.118001E-14  0.255449E-14
  0.466071E-14  0.723903E-14  0.947125E-14  0.102961E-13
  0.949775E-14  0.833116E-14  0.833116E-14  0.949775E-14
  0.102961E-13  0.947125E-14  0.723903E-14  0.466071E-14
  0.255449E-14  0.118001E-14  0.447190E-15  0.134742E-15
  0.313765E-16  0.549802E-17  0.702159E-18  0.620980E-19
  0.342540E-20  0.176397E-20  0.291507E-19  0.318392E-18
  0.247618E-17  0.143518E-16  0.642210E-16  0.229487E-15
  0.676392E-15  0.168243E-14  0.354320E-14  0.622010E-14
  0.890878E-14  0.103226E-13  0.998682E-14  0.904650E-14
  0.904650E-14  0.998682E-14  0.103226E-13  0.890878E-14
  0.622010E-14  0.354320E-14  0.168243E-14  0.676392E-15
  0.229487E-15  0.642210E-16  0.143518E-16  0.247618E-17
  0.318392E-18  0.291507E-19  0.176397E-20  0.777223E-21
  0.117773E-19  0.125081E-18  0.980136E-18  0.590806E-17
  0.284324E-16  0.112799E-15  0.376118E-15  0.105408E-14
  0.244304E-14  0.458465E-14  0.685891E-14  0.818771E-14
  0.810600E-14  0.746131E-14  0.746131E-14  0.810600E-14
  0.818771E-14  0.685891E-14  0.458465E-14  0.244304E-14
  0.105408E-14  0.376118E-15  0.112799E-15  0.284324E-16
  0.590806E-17  0.980136E-18  0.125081E-18  0.117773E-19
  0.777223E-21  0.286287E-21  0.406318E-20  0.426605E-19
  0.343477E-18  0.220049E-17  0.115756E-16  0.509152E-16
  0.187230E-15  0.567197E-15  0.138804E-14  0.269979E-14
  0.413957E-14  0.503900E-14  0.507952E-14  0.474097E-14
  0.474097E-14  0.507952E-14  0.503900E-14  0.413957E-14
  0.269979E-14  0.138804E-14  0.567197E-15  0.187230E-15
  0.509152E-16  0.115756E-16  0.220049E-17  0.343477E-18
  0.426605E-19  0.406318E-20  0.286287E-21  0.855143E-22
  0.116203E-20  0.122707E-19  0.103066E-18  0.708266E-18
  0.405720E-17  0.194028E-16  0.764571E-16  0.243646E-15
  0.617590E-15  0.123185E-14  0.192756E-14  0.239227E-14
  0.246119E-14  0.233564E-14  0.233564E-14  0.246119E-14
  0.239227E-14  0.192756E-14  0.123185E-14  0.617590E-15
  0.243646E-15  0.764571E-16  0.194028E-16  0.405720E-17
  0.708266E-18  0.103066E-18  0.122707E-19  0.116203E-20
  0.855143E-22  0.200583E-22  0.263000E-21  0.281621E-20
  0.248365E-19  0.183190E-18  0.113367E-17  0.581339E-17
  0.242140E-16  0.804232E-16  0.210284E-15  0.430037E-15
  0.688395E-15  0.874900E-15  0.923597E-15  0.894879E-15
  0.894879E-15  0.923597E-15  0.874900E-15  0.688395E-15
  0.430037E-15  0.210284E-15  0.804232E-16  0.242140E-16
  0.581339E-17  0.113367E-17  0.183190E-18  0.248365E-19
  0.281621E-20  0.263000E-21  0.200583E-22  0.359591E-23
  0.444526E-22  0.478047E-21  0.442554E-20  0.351590E-19
  0.235779E-18  0.129919E-17  0.573496E-17  0.199313E-16
  0.540367E-16  0.113984E-15  0.187896E-15  0.246291E-15
  0.268679E-15  0.267058E-15  0.267058E-15  0.268679E-15
  0.246291E-15  0.187896E-15  0.113984E-15  0.540367E-16
  0.199313E-16  0.573496E-17  0.129919E-17  0.235779E-18
  0.351590E-19  0.442554E-20  0.478047E-21  0.444526E-22
  0.359591E-23  0.498792E-24  0.534017E-23  0.542470E-22
  0.518141E-21  0.450694E-20  0.336936E-19  0.204871E-18
  0.979192E-18  0.362230E-17  0.103266E-16  0.227405E-16
  0.390274E-16  0.532989E-16  0.606024E-16  0.621038E-16
  0.621038E-16  0.606024E-16  0.532989E-16  0.390274E-16
  0.227405E-16  0.103266E-16  0.362230E-17  0.979192E-18
  0.204871E-18  0.336936E-19  0.450694E-20  0.518141E-21
  0.542470E-22  0.534017E-23  0.498792E-24  0.667089E-25
  0.541428E-24  0.403758E-23  0.326392E-22  0.309860E-21
  0.282883E-20  0.206582E-19  0.113436E-18  0.465010E-18
  0.143436E-17  0.336972E-17  0.612691E-17  0.884388E-17
  0.105920E-16  0.112488E-16  0.112488E-16  0.105920E-16
  0.884388E-17  0.612691E-17  0.336972E-17  0.143436E-17
  0.465010E-18  0.113436E-18  0.206582E-19  0.282883E-20
  0.309860E-21  0.326392E-22  0.403758E-23  0.541428E-24
  0.667089E-25  0.129219E-25  0.105851E-24  0.627255E-24
  0.240679E-23  0.772008E-23  0.811896E-22  0.100725E-20
  0.773322E-20  0.390590E-19  0.138840E-18  0.362656E-18
  0.719295E-18  0.112053E-17  0.143207E-17  0.158457E-17
  0.158457E-17  0.143207E-17  0.112053E-17  0.719295E-18
  0.362656E-18  0.138840E-18  0.390590E-19  0.773322E-20
  0.100725E-20  0.811896E-22  0.772008E-23  0.240679E-23
  0.627255E-24  0.105851E-24  0.129219E-25  0.302506E-26
  0.306870E-25  0.234066E-24  0.123939E-23  0.397330E-23
  0.510902E-23  0.289095E-23  0.180981E-21  0.175329E-20
  0.857368E-20  0.272565E-19  0.621510E-19  0.107800E-18
  0.149409E-18  0.173199E-18  0.173199E-18  0.149409E-18
  0.107800E-18  0.621510E-19  0.272565E-19  0.857368E-20
  0.175329E-20  0.180981E-21  0.289095E-23  0.510902E-23
  0.397330E-23  0.123939E-23  0.234066E-24  0.306870E-25
  0.302506E-26  0.573776E-27  0.658712E-26  0.578892E-25
  0.374378E-24  0.171497E-23  0.518239E-23  0.862869E-23
  0.391831E-23  0.189626E-22  0.273460E-21  0.133786E-20
  0.387312E-20  0.783348E-20  0.120026E-19  0.146548E-19
  0.146548E-19  0.120026E-19  0.783348E-20  0.387312E-20
  0.133786E-20  0.273460E-21  0.189626E-22  0.391831E-23
  0.862869E-23  0.518239E-23  0.171497E-23  0.374378E-24
  0.578892E-25  0.658712E-26  0.573776E-27  0.196035E-25
  0.237869E-24  0.220656E-23  0.152973E-22  0.773252E-22
  0.274742E-21  0.636089E-21  0.791653E-21  0.331758E-21
  0.238988E-20  0.195259E-19  0.707883E-19  0.161561E-18
  0.265210E-18  0.334550E-18  0.334550E-18  0.265210E-18
  0.161561E-18  0.707883E-19  0.195259E-19  0.238988E-20
  0.331758E-21  0.791653E-21  0.636089E-21  0.274742E-21
  0.773252E-22  0.152973E-22  0.220656E-23  0.237869E-24
  0.196035E-25  0.103762E-24  0.115261E-23  0.977410E-23
  0.599636E-22  0.249609E-21  0.614555E-21  0.547479E-21
  0.218373E-21  0.158851E-19  0.120650E-18  0.469553E-18
  0.120628E-17  0.226418E-17  0.330623E-17  0.393818E-17
  0.393818E-17  0.330623E-17  0.226418E-17  0.120628E-17
  0.469553E-18  0.120650E-18  0.158851E-19  0.218373E-21
  0.547479E-21  0.614555E-21  0.249609E-21  0.599636E-22
  0.977410E-23  0.115261E-23  0.103762E-24  0.421961E-24
  0.388811E-23  0.269660E-22  0.124203E-21  0.308869E-21
  0.462405E-21  0.754307E-20  0.928250E-19  0.592177E-18
  0.241011E-17  0.688613E-17  0.145848E-16  0.239082E-16
  0.317536E-16  0.359196E-16  0.359196E-16  0.317536E-16
  0.239082E-16  0.145848E-16  0.688613E-17  0.241011E-17
  0.592177E-18  0.928250E-19  0.754307E-20  0.462405E-21
  0.308869E-21  0.124203E-21  0.269660E-22  0.388811E-23
  0.421961E-24  0.180727E-23  0.142849E-22  0.921719E-22
  0.532918E-21  0.391120E-20  0.372327E-19  0.309268E-18
  0.189275E-17  0.840419E-17  0.275125E-16  0.677090E-16
  0.127947E-15  0.190978E-15  0.235257E-15  0.254309E-15
  0.254309E-15  0.235257E-15  0.190978E-15  0.127947E-15
  0.677090E-16  0.275125E-16  0.840419E-17  0.189275E-17
  0.309268E-18  0.372327E-19  0.391120E-20  0.532918E-21
  0.921719E-22  0.142849E-22  0.180727E-23  0.119303E-22
  0.116995E-21  0.107232E-20  0.938514E-20  0.786815E-19
  0.595162E-18  0.374595E-17  0.186036E-16  0.712542E-16
  0.209308E-15  0.473083E-15  0.831279E-15  0.116093E-14
  0.134761E-14  0.140067E-14  0.140067E-14  0.134761E-14
  0.116093E-14  0.831279E-15  0.473083E-15  0.209308E-15
  0.712542E-16  0.186036E-16  0.374595E-17  0.595162E-18
  0.786815E-19  0.938514E-20  0.107232E-20  0.116995E-21
  0.119303E-22  0.847107E-22  0.998325E-21  0.102470E-19
  0.911462E-19  0.706009E-18  0.469957E-17  0.260560E-16
  0.116540E-15  0.411310E-15  0.113249E-14  0.242457E-14
  0.405571E-14  0.539717E-14  0.597828E-14  0.600999E-14
  0.600999E-14  0.597828E-14  0.539717E-14  0.405571E-14
  0.242457E-14  0.113249E-14  0.411310E-15  0.116540E-15
  0.260560E-16  0.469957E-17  0.706009E-18  0.911462E-19
  0.102470E-19  0.998325E-21  0.847107E-22  0.472278E-21
  0.605758E-20  0.633996E-19  0.545964E-18  0.394395E-17
  0.240750E-16  0.122804E-15  0.512169E-15  0.170987E-14
  0.450268E-14  0.928258E-14  0.149927E-13  0.192516E-13
  0.205575E-13  0.201020E-13  0.201020E-13  0.205575E-13
  0.192516E-13  0.149927E-13  0.928258E-14  0.450268E-14
  0.170987E-14  0.512169E-15  0.122804E-15  0.240750E-16
  0.394395E-17  0.545964E-18  0.633996E-19  0.605758E-20
  0.472278E-21  0.197311E-20  0.267749E-19  0.281097E-18
  0.233497E-17  0.158209E-16  0.894133E-16  0.423416E-15
  0.166007E-14  0.528477E-14  0.134186E-13  0.268593E-13
  0.422432E-13  0.527958E-13  0.547953E-13  0.523985E-13
  0.523985E-13  0.547953E-13  0.527958E-13  0.422432E-13
  0.268593E-13  0.134186E-13  0.528477E-14  0.166007E-14
  0.423416E-15  0.894133E-16  0.158209E-16  0.233497E-17
  0.281097E-18  0.267749E-19  0.197311E-20  0.630816E-20
  0.913840E-19  0.970056E-18  0.782704E-17  0.499204E-16
  0.260393E-15  0.113466E-14  0.414036E-14  0.124824E-13
  0.304848E-13  0.593100E-13  0.911564E-13  0.111477E-12
  0.113152E-12  0.106310E-12  0.106310E-12  0.113152E-12
  0.111477E-12  0.911564E-13  0.593100E-13  0.304848E-13
  0.124824E-13  0.414036E-14  0.113466E-14  0.260393E-15
  0.499204E-16  0.782704E-17  0.970056E-18  0.913840E-19
  0.630816E-20  0.158765E-19  0.253022E-18  0.276896E-17
  0.220402E-16  0.133703E-15  0.643419E-15  0.254156E-14
  0.842104E-14  0.234590E-13  0.541376E-13  0.101380E-12
  0.151714E-12  0.181631E-12  0.180828E-12  0.167428E-12
  0.167428E-12  0.180828E-12  0.181631E-12  0.151714E-12
  0.101380E-12  0.541376E-13  0.234590E-13  0.842104E-14
  0.254156E-14  0.643419E-15  0.133703E-15  0.220402E-16
  0.276896E-17  0.253022E-18  0.158765E-19  0.324357E-19
  0.590093E-18  0.678901E-17  0.543287E-16  0.319896E-15
  0.144299E-14  0.517014E-14  0.152206E-13  0.377282E-13
  0.791297E-13  0.138467E-12  0.198085E-12  0.229871E-12
  0.223414E-12  0.203468E-12  0.203468E-12  0.223414E-12
  0.229871E-12  0.198085E-12  0.138467E-12  0.791297E-13
  0.377282E-13  0.152206E-13  0.517014E-14  0.144299E-14
  0.319896E-15  0.543287E-16  0.678901E-17  0.590093E-18
  0.324357E-19  0.556597E-19  0.118363E-17  0.144299E-16
  0.117574E-15  0.686309E-15  0.298642E-14  0.998754E-14
  0.264597E-13  0.573582E-13  0.104588E-12  0.162188E-12
  0.211960E-12  0.230584E-12  0.213474E-12  0.188157E-12
  0.188157E-12  0.213474E-12  0.230584E-12  0.211960E-12
  0.162188E-12  0.104588E-12  0.573582E-13  0.264597E-13
  0.998754E-14  0.298642E-14  0.686309E-15  0.117574E-15
  0.144299E-16  0.118363E-17  0.556597E-19  0.828097E-19
  0.204255E-17  0.261934E-16  0.217766E-15  0.127544E-14
  0.548265E-14  0.177446E-13  0.441779E-13  0.866267E-13
  0.137583E-12  0.181978E-12  0.203757E-12  0.193465E-12
  0.158794E-12  0.127612E-12  0.127612E-12  0.158794E-12
  0.193465E-12  0.203757E-12  0.181978E-12  0.137583E-12
  0.866267E-13  0.441779E-13  0.177446E-13  0.548265E-14
  0.127544E-14  0.217766E-15  0.261934E-16  0.204255E-17
  0.828097E-19  0.108567E-18  0.298685E-17  0.396421E-16
  0.334577E-15  0.197159E-14  0.846502E-14  0.271113E-13
  0.658199E-13  0.122893E-12  0.179415E-12  0.208861E-12
  0.197265E-12  0.151879E-12  0.955164E-13  0.568514E-13
  0.568514E-13  0.955164E-13  0.151879E-12  0.197265E-12
  0.208861E-12  0.179415E-12  0.122893E-12  0.658199E-13
  0.271113E-13  0.846502E-14  0.197159E-14  0.334577E-15
  0.396421E-16  0.298685E-17  0.108567E-18  0.124946E-18
  0.363304E-17  0.490267E-16  0.416970E-15  0.246667E-14
  0.106023E-13  0.338850E-13  0.816656E-13  0.149978E-12
  0.211931E-12  0.232582E-12  0.198775E-12  0.128979E-12
  0.567531E-13  0.121007E-13  0.121007E-13  0.567531E-13
  0.128979E-12  0.198775E-12  0.232582E-12  0.211931E-12
  0.149978E-12  0.816656E-13  0.338850E-13  0.106023E-13
  0.246667E-14  0.416970E-15  0.490267E-16  0.363304E-17
  0.124946E-18  0.124946E-18  0.363304E-17  0.490267E-16
  0.416970E-15  0.246667E-14  0.106023E-13  0.338850E-13
  0.816656E-13  0.149978E-12  0.211931E-12  0.232582E-12
  0.198775E-12  0.128979E-12  0.567531E-13  0.121007E-13
  0.121007E-13  0.567531E-13  0.128979E-12  0.198775E-12
  0.232582E-12  0.211931E-12  0.149978E-12  0.816656E-13
  0.338850E-13  0.106023E-13  0.246667E-14  0.416970E-15
  0.490267E-16  0.363304E-17  0.124946E-18  0.108567E-18
  0.298685E-17  0.396421E-16  0.334577E-15  0.197159E-14
  0.846502E-14  0.271113E-13  0.658199E-13  0.122893E-12
  0.179415E-12  0.208861E-12  0.197265E-12  0.151879E-12
  0.955164E-13  0.568514E-13  0.568514E-13  0.955164E-13
  0.151879E-12  0.197265E-12  0.208861E-12  0.179415E-12
  0.122893E-12  0.658199E-13  0.271113E-13  0.846502E-14
  0.197159E-14  0.334577E-15  0.396421E-16  0.298685E-17
  0.108567E-18  0.828097E-19  0.204255E-17  0.261934E-16
  0.217766E-15  0.127544E-14  0.548265E-14  0.177446E-13
  0.441779E-13  0.866267E-13  0.137583E-12  0.181978E-12
  0.203757E-12  0.193465E-12  0.158794E-12  0.127612E-12
  0.127612E-12  0.158794E-12  0.193465E-12  0.203757E-12
  0.181978E-12  0.137583E-12  0.866267E-13  0.441779E-13
  0.177446E-13  0.548265E-14  0.127544E-14  0.217766E-15
  0.261934E-16  0.204255E-17  0.828097E-19  0.556597E-19
  0.118363E-17  0.144299E-16  0.117574E-15  0.686309E-15
  0.298642E-14  0.998754E-14  0.264597E-13  0.573582E-13
  0.104588E-12  0.162188E-12  0.211960E-12  0.230584E-12
  0.213474E-12  0.188157E-12  0.188157E-12  0.213474E-12
  0.230584E-12  0.211960E-12  0.162188E-12  0.104588E-12
  0.573582E-13  0.264597E-13  0.998754E-14  0.298642E-14
  0.686309E-15  0.117574E-15  0.144299E-16  0.118363E-17
  0.556597E-19  0.324357E-19  0.590093E-18  0.678901E-17
  0.543287E-16  0.319896E-15  0.144299E-14  0.517014E-14
  0.152206E-13  0.377282E-13  0.791297E-13  0.138467E-12
  0.198085E-12  0.229871E-12  0.223414E-12  0.203468E-12
  0.203468E-12  0.223414E-12  0.229871E-12  0.198085E-12
  0.138467E-12  0.791297E-13  0.377282E-13  0.152206E-13
  0.517014E-14  0.144299E-14  0.319896E-15  0.543287E-16
  0.678901E-17  0.590093E-18  0.324357E-19  0.158765E-19
  0.253022E-18  0.276896E-17  0.220402E-16  0.133703E-15
  0.643419E-15  0.254156E-14  0.842104E-14  0.234590E-13
  0.541376E-13  0.101380E-12  0.151714E-12  0.181631E-12
  0.180828E-12  0.167428E-12  0.167428E-12  0.180828E-12
  0.181631E-12  0.151714E-12  0.101380E-12  0.541376E-13
  0.234590E-13  0.842104E-14  0.254156E-14  0.643419E-15
  0.133703E-15  0.220402E-16  0.276896E-17  0.253022E-18
  0.158765E-19  0.630816E-20  0.913840E-19  0.970056E-18
  0.782704E-17  0.499204E-16  0.260393E-15  0.113466E-14
  0.414036E-14  0.124824E-13  0.304848E-13  0.593100E-13
  0.911564E-13  0.111477E-12  0.113152E-12  0.106310E-12
  0.106310E-12  0.113152E-12  0.111477E-12  0.911564E-13
  0.593100E-13  0.304848E-13  0.124824E-13  0.414036E-14
  0.113466E-14  0.260393E-15  0.499204E-16  0.782704E-17
  0.970056E-18  0.913840E-19  0.630816E-20  0.197311E-20
  0.267749E-19  0.281097E-18  0.233497E-17  0.158209E-16
  0.894133E-16  0.423416E-15  0.166007E-14  0.528477E-14
  0.134186E-13  0.268593E-13  0.422432E-13  0.527958E-13
  0.547953E-13  0.523985E-13  0.523985E-13  0.547953E-13
  0.527958E-13  0.422432E-13  0.268593E-13  0.134186E-13
  0.528477E-14  0.166007E-14  0.423416E-15  0.894133E-16
  0.158209E-16  0.233497E-17  0.281097E-18  0.267749E-19
  0.197311E-20  0.472278E-21  0.605758E-20  0.633996E-19
  0.545964E-18  0.394395E-17  0.240750E-16  0.122804E-15
  0.512169E-15  0.170987E-14  0.450268E-14  0.928258E-14
  0.149927E-13  0.192516E-13  0.205575E-13  0.201020E-13
  0.201020E-13  0.205575E-13  0.192516E-13  0.149927E-13
  0.928258E-14  0.450268E-14  0.170987E-14  0.512169E-15
  0.122804E-15  0.240750E-16  0.394395E-17  0.545964E-18
  0.633996E-19  0.605758E-20  0.472278E-21  0.847107E-22
  0.998325E-21  0.102470E-19  0.911462E-19  0.706009E-18
  0.469957E-17  0.260560E-16  0.116540E-15  0.411310E-15
  0.113249E-14  0.242457E-14  0.405571E-14  0.539717E-14
  0.597828E-14  0.600999E-14  0.600999E-14  0.597828E-14
  0.539717E-14  0.405571E-14  0.242457E-14  0.113249E-14
  0.411310E-15  0.116540E-15  0.260560E-16  0.469957E-17
  0.706009E-18  0.911462E-19  0.102470E-19  0.998325E-21
  0.847107E-22  0.119303E-22  0.116995E-21  0.107232E-20
  0.938514E-20  0.786815E-19  0.595162E-18  0.374595E-17
  0.186036E-16  0.712542E-16  0.209308E-15  0.473083E-15
  0.831279E-15  0.116093E-14  0.134761E-14  0.140067E-14
  0.140067E-14  0.134761E-14  0.116093E-14  0.831279E-15
  0.473083E-15  0.209308E-15  0.712542E-16  0.186036E-16
  0.374595E-17  0.595162E-18  0.786815E-19  0.938514E-20
  0.107232E-20  0.116995E-21  0.119303E-22  0.180727E-23
  0.142849E-22  0.921719E-22  0.532918E-21  0.391120E-20
  0.372327E-19  0.309268E-18  0.189275E-17  0.840419E-17
  0.275125E-16  0.677090E-16  0.127947E-15  0.190978E-15
  0.235257E-15  0.254309E-15  0.254309E-15  0.235257E-15
  0.190978E-15  0.127947E-15  0.677090E-16  0.275125E-16
  0.840419E-17  0.189275E-17  0.309268E-18  0.372327E-19
  0.391120E-20  0.532918E-21  0.921719E-22  0.142849E-22
  0.180727E-23  0.421961E-24  0.388811E-23  0.269660E-22
  0.124203E-21  0.308869E-21  0.462405E-21  0.754307E-20
  0.928250E-19  0.592177E-18  0.241011E-17  0.688613E-17
  0.145848E-16  0.239082E-16  0.317536E-16  0.359196E-16
  0.359196E-16  0.317536E-16  0.239082E-16  0.145848E-16
  0.688613E-17  0.241011E-17  0.592177E-18  0.928250E-19
  0.754307E-20  0.462405E-21  0.308869E-21  0.124203E-21
  0.269660E-22  0.388811E-23  0.421961E-24  0.103762E-24
  0.115261E-23  0.977410E-23  0.599636E-22  0.249609E-21
  0.614555E-21  0.547479E-21  0.218373E-21  0.158851E-19
  0.120650E-18  0.469553E-18  0.120628E-17  0.226418E-17
  0.330623E-17  0.393818E-17  0.393818E-17  0.330623E-17
  0.226418E-17  0.120628E-17  0.469553E-18  0.120650E-18
  0.158851E-19  0.218373E-21  0.547479E-21  0.614555E-21
  0.249609E-21  0.599636E-22  0.977410E-23  0.115261E-23
  0.103762E-24  0.196035E-25  0.237869E-24  0.220656E-23
  0.152973E-22  0.773252E-22  0.274742E-21  0.636089E-21
  0.791653E-21  0.331758E-21  0.238988E-20  0.195259E-19
  0.707883E-19  0.161561E-18  0.265210E-18  0.334550E-18
  0.334550E-18  0.265210E-18  0.161561E-18  0.707883E-19
  0.195259E-19  0.238988E-20  0.331758E-21  0.791653E-21
  0.636089E-21  0.274742E-21  0.773252E-22  0.152973E-22
  0.220656E-23  0.237869E-24  0.196035E-25  0.518486E-24
  0.656312E-23  0.635728E-22  0.463280E-21  0.250268E-20
  0.980385E-20  0.267786E-19  0.469180E-19  0.430468E-19
  0.238913E-19  0.183912E-18  0.929473E-18  0.249955E-17
  0.447080E-17  0.586133E-17  0.586133E-17  0.447080E-17
  0.249955E-17  0.929473E-18  0.183912E-18  0.238913E-19
  0.430468E-19  0.469180E-19  0.267786E-19  0.980385E-20
  0.250268E-20  0.463280E-21  0.635728E-22  0.656312E-23
  0.518486E-24  0.275901E-23  0.329801E-22  0.302043E-21
  0.204586E-20  0.987795E-20  0.320614E-19  0.609075E-19
  0.406248E-19  0.312359E-19  0.963261E-18  0.553830E-17
  0.171274E-16  0.358133E-16  0.558322E-16  0.686783E-16
  0.686783E-16  0.558322E-16  0.358133E-16  0.171274E-16
  0.553830E-17  0.963261E-18  0.312359E-19  0.406248E-19
  0.609075E-19  0.320614E-19  0.987795E-20  0.204586E-20
  0.302043E-21  0.329801E-22  0.275901E-23  0.108375E-22
  0.112687E-21  0.904169E-21  0.513631E-20  0.183833E-19
  0.310909E-19  0.107378E-19  0.470189E-18  0.544759E-17
  0.286335E-16  0.945140E-16  0.220103E-15  0.386085E-15
  0.537765E-15  0.624300E-15  0.624300E-15  0.537765E-15
  0.386085E-15  0.220103E-15  0.945140E-16  0.286335E-16
  0.544759E-17  0.470189E-18  0.107378E-19  0.310909E-19
  0.183833E-19  0.513631E-20  0.904169E-21  0.112687E-21
  0.108375E-22  0.397957E-22  0.329396E-21  0.213013E-20
  0.985241E-20  0.377070E-19  0.269037E-18  0.278804E-17
  0.209644E-16  0.106722E-15  0.383413E-15  0.100961E-14
  0.201105E-14  0.313384E-14  0.399479E-14  0.440771E-14
  0.440771E-14  0.399479E-14  0.313384E-14  0.201105E-14
  0.100961E-14  0.383413E-15  0.106722E-15  0.209644E-16
  0.278804E-17  0.269037E-18  0.377070E-19  0.985241E-20
  0.213013E-20  0.329396E-21  0.397957E-22  0.223252E-21
  0.201618E-20  0.163764E-19  0.124829E-18  0.962553E-18
  0.731477E-17  0.484936E-16  0.255536E-15  0.103097E-14
  0.316126E-14  0.740517E-14  0.134215E-13  0.192756E-13
  0.229299E-13  0.242172E-13  0.242172E-13  0.229299E-13
  0.192756E-13  0.134215E-13  0.740517E-14  0.316126E-14
  0.103097E-14  0.255536E-15  0.484936E-16  0.731477E-17
  0.962553E-18  0.124829E-18  0.163764E-19  0.201618E-20
  0.223252E-21  0.154532E-20  0.172195E-19  0.166952E-18
  0.140867E-17  0.105227E-16  0.692500E-16  0.387330E-15
  0.176570E-14  0.636914E-14  0.179112E-13  0.391114E-13
  0.666604E-13  0.903534E-13  0.101861E-12  0.103685E-12
  0.103685E-12  0.101861E-12  0.903534E-13  0.666604E-13
  0.391114E-13  0.179112E-13  0.636914E-14  0.176570E-14
  0.387330E-15  0.692500E-16  0.105227E-16  0.140867E-17
  0.166952E-18  0.172195E-19  0.154532E-20  0.858650E-20
  0.107310E-18  0.109314E-17  0.914574E-17  0.643894E-16
  0.386445E-15  0.195934E-14  0.819292E-14  0.275593E-13
  0.732816E-13  0.152689E-12  0.249404E-12  0.324154E-12
  0.350571E-12  0.346148E-12  0.346148E-12  0.350571E-12
  0.324154E-12  0.249404E-12  0.152689E-12  0.732816E-13
  0.275593E-13  0.819292E-14  0.195934E-14  0.386445E-15
  0.643894E-16  0.914574E-17  0.109314E-17  0.107310E-18
  0.858650E-20  0.350424E-19  0.474336E-18  0.494467E-17
  0.405462E-16  0.270261E-15  0.150362E-14  0.704197E-14
  0.274644E-13  0.873980E-13  0.222556E-12  0.447676E-12
  0.708626E-12  0.892717E-12  0.935154E-12  0.901086E-12
  0.901086E-12  0.935154E-12  0.892717E-12  0.708626E-12
  0.447676E-12  0.222556E-12  0.873980E-13  0.274644E-13
  0.704197E-14  0.150362E-14  0.270261E-15  0.405462E-16
  0.494467E-17  0.474336E-18  0.350424E-19  0.106204E-18
  0.157378E-17  0.169172E-16  0.136846E-15  0.868451E-15
  0.448750E-14  0.193535E-13  0.700401E-13  0.210134E-12
  0.512420E-12  0.998029E-12  0.153879E-11  0.189152E-11
  0.193323E-11  0.182757E-11  0.182757E-11  0.193323E-11
  0.189152E-11  0.153879E-11  0.998029E-12  0.512420E-12