<?xml version="1.0"?>
 <VTKFile type="ImageData" version="0.1" byte_order="LittleEndian">
   <ImageData WholeExtent="           0          29           0          29
           0          29 " Origin="  -8.00000000000000     
  -8.00000000000000       -8.00000000000000      " Spacing="
  0.551724137931034       0.551724137931034       0.551724137931034      ">
   <Piece Extent="           0          29           0          29           0
          29 ">
   <PointData Scalars="scalars">
   <DataArray Name="scalars" type="Float64" 
 NumberOfComponents="1" Format="ascii">
  0.293165E-12
  0.704913E-12  0.154057E-11  0.315252E-11  0.631519E-11
  0.129756E-10  0.277379E-10  0.595934E-10  0.122149E-09
  0.230051E-09  0.390758E-09  0.594838E-09  0.811592E-09
  0.995375E-09  0.110111E-08  0.110111E-08  0.995375E-09
  0.811592E-09  0.594838E-09  0.390758E-09  0.230051E-09
  0.122149E-09  0.595934E-10  0.277379E-10  0.129756E-10
  0.631519E-11  0.315252E-11  0.154057E-11  0.704913E-12
  0.293165E-12  0.104151E-11  0.256580E-11  0.578129E-11
  0.121818E-10  0.247397E-10  0.498644E-10  0.100872E-09
  0.201586E-09  0.385571E-09  0.685528E-09  0.111238E-08
  0.163393E-08  0.216978E-08  0.261198E-08  0.286175E-08
  0.286175E-08  0.261198E-08  0.216978E-08  0.163393E-08
  0.111238E-08  0.685528E-09  0.385571E-09  0.201586E-09
  0.100872E-09  0.498644E-10  0.247397E-10  0.121818E-10
  0.578129E-11  0.256580E-11  0.104151E-11  0.324894E-11
  0.815860E-11  0.187989E-10  0.404627E-10  0.831182E-10
  0.166039E-09  0.324930E-09  0.617637E-09  0.111831E-08
  0.188921E-08  0.293310E-08  0.415298E-08  0.535648E-08
  0.631533E-08  0.684347E-08  0.684347E-08  0.631533E-08
  0.535648E-08  0.415298E-08  0.293310E-08  0.188921E-08
  0.111831E-08  0.617637E-09  0.324930E-09  0.166039E-09
  0.831182E-10  0.404627E-10  0.187989E-10  0.815860E-11
  0.324894E-11  0.893438E-11  0.227817E-10  0.534012E-10
  0.116761E-09  0.241896E-09  0.480790E-09  0.920782E-09
  0.168954E-08  0.293235E-08  0.474490E-08  0.707720E-08
  0.967241E-08  0.121130E-07  0.139721E-07  0.149614E-07
  0.149614E-07  0.139721E-07  0.121130E-07  0.967241E-08
  0.707720E-08  0.474490E-08  0.293235E-08  0.168954E-08
  0.920782E-09  0.480790E-09  0.241896E-09  0.116761E-09
  0.534012E-10  0.227817E-10  0.893438E-11  0.217414E-10
  0.561564E-10  0.133426E-09  0.295112E-09  0.614828E-09
  0.121685E-08  0.229328E-08  0.409736E-08  0.687746E-08
  0.107341E-07  0.154508E-07  0.204302E-07  0.248580E-07
  0.280417E-07  0.296549E-07  0.296549E-07  0.280417E-07
  0.248580E-07  0.204302E-07  0.154508E-07  0.107341E-07
  0.687746E-08  0.409736E-08  0.229328E-08  0.121685E-08
  0.614828E-09  0.295112E-09  0.133426E-09  0.561564E-10
  0.217414E-10  0.470101E-10  0.122839E-09  0.295120E-09
  0.658221E-09  0.137518E-08  0.270765E-08  0.503094E-08
  0.879000E-08  0.143439E-07  0.216975E-07  0.302463E-07
  0.387736E-07  0.458690E-07  0.505912E-07  0.528106E-07
  0.528106E-07  0.505912E-07  0.458690E-07  0.387736E-07
  0.302463E-07  0.216975E-07  0.143439E-07  0.879000E-08
  0.503094E-08  0.270765E-08  0.137518E-08  0.658221E-09
  0.295120E-09  0.122839E-09  0.470101E-10  0.907202E-10
  0.239827E-09  0.581928E-09  0.130588E-08  0.272883E-08
  0.533443E-08  0.976604E-08  0.167021E-07  0.265497E-07
  0.390076E-07  0.527512E-07  0.656189E-07  0.754713E-07
  0.813199E-07  0.837197E-07  0.837197E-07  0.813199E-07
  0.754713E-07  0.656189E-07  0.527512E-07  0.390076E-07
  0.265497E-07  0.167021E-07  0.976604E-08  0.533443E-08
  0.272883E-08  0.130588E-08  0.581928E-09  0.239827E-09
  0.907202E-10  0.157074E-09  0.420699E-09  0.103121E-08
  0.232578E-08  0.485075E-08  0.939039E-08  0.168985E-07
  0.282378E-07  0.436757E-07  0.622819E-07  0.816497E-07
  0.984486E-07  0.109904E-06  0.115450E-06  0.117030E-06
  0.117030E-06  0.115450E-06  0.109904E-06  0.984486E-07
  0.816497E-07  0.622819E-07  0.436757E-07  0.282378E-07
  0.168985E-07  0.939039E-08  0.485075E-08  0.232578E-08
  0.103121E-08  0.420699E-09  0.157074E-09  0.245456E-09
  0.668139E-09  0.165743E-08  0.375849E-08  0.781569E-08
  0.149480E-07  0.263513E-07  0.428506E-07  0.642178E-07
  0.885156E-07  0.112043E-06  0.130417E-06  0.140712E-06
  0.143478E-06  0.142755E-06  0.142755E-06  0.143478E-06
  0.140712E-06  0.130417E-06  0.112043E-06  0.885156E-07
  0.642178E-07  0.428506E-07  0.263513E-07  0.149480E-07
  0.781569E-08  0.375849E-08  0.165743E-08  0.668139E-09
  0.245456E-09  0.348593E-09  0.968768E-09  0.244012E-08
  0.557458E-08  0.115657E-07  0.218335E-07  0.375956E-07
  0.591935E-07  0.853618E-07  0.112824E-06  0.136734E-06
  0.152330E-06  0.157461E-06  0.154543E-06  0.150034E-06
  0.150034E-06  0.154543E-06  0.157461E-06  0.152330E-06
  0.136734E-06  0.112824E-06  0.853618E-07  0.591935E-07
  0.375956E-07  0.218335E-07  0.115657E-07  0.557458E-08
  0.244012E-08  0.968768E-09  0.348593E-09  0.453544E-09
  0.129362E-08  0.332144E-08  0.766812E-08  0.159119E-07
  0.296961E-07  0.499359E-07  0.758747E-07  0.104535E-06
  0.131041E-06  0.149969E-06  0.157458E-06  0.153414E-06
  0.142638E-06  0.133582E-06  0.133582E-06  0.142638E-06
  0.153414E-06  0.157458E-06  0.149969E-06  0.131041E-06
  0.104535E-06  0.758747E-07  0.499359E-07  0.296961E-07
  0.159119E-07  0.766812E-08  0.332144E-08  0.129362E-08
  0.453544E-09  0.545798E-09  0.160457E-08  0.421241E-08
  0.985524E-08  0.205204E-07  0.380072E-07  0.626478E-07
  0.920380E-07  0.120847E-06  0.142372E-06  0.151308E-06
  0.146223E-06  0.130493E-06  0.111485E-06  0.983966E-07
  0.983966E-07  0.111485E-06  0.130493E-06  0.146223E-06
  0.151308E-06  0.142372E-06  0.120847E-06  0.920380E-07
  0.626478E-07  0.380072E-07  0.205204E-07  0.985524E-08
  0.421241E-08  0.160457E-08  0.545798E-09  0.614658E-09
  0.186454E-08  0.500656E-08  0.118800E-07  0.248786E-07
  0.459299E-07  0.746892E-07  0.106910E-06  0.134659E-06
  0.149298E-06  0.145983E-06  0.126648E-06  0.991693E-07
  0.734918E-07  0.580330E-07  0.580330E-07  0.734918E-07
  0.991693E-07  0.126648E-06  0.145983E-06  0.149298E-06
  0.134659E-06  0.106910E-06  0.746892E-07  0.459299E-07
  0.248786E-07  0.118800E-07  0.500656E-08  0.186454E-08
  0.614658E-09  0.656881E-09  0.204700E-08  0.560094E-08
  0.134508E-07  0.283327E-07  0.522888E-07  0.844115E-07
  0.118906E-06  0.145632E-06  0.154301E-06  0.140489E-06
  0.109169E-06  0.724106E-07  0.425082E-07  0.263247E-07
  0.263247E-07  0.425082E-07  0.724106E-07  0.109169E-06
  0.140489E-06  0.154301E-06  0.145632E-06  0.118906E-06
  0.844115E-07  0.522888E-07  0.283327E-07  0.134508E-07
  0.560094E-08  0.204700E-08  0.656881E-09  0.675780E-09
  0.213961E-08  0.591802E-08  0.143109E-07  0.302535E-07
  0.558613E-07  0.899162E-07  0.125751E-06  0.151982E-06
  0.157391E-06  0.137805E-06  0.999354E-07  0.582643E-07
  0.263006E-07  0.886436E-08  0.886436E-08  0.263006E-07
  0.582643E-07  0.999354E-07  0.137805E-06  0.157391E-06
  0.151982E-06  0.125751E-06  0.899162E-07  0.558613E-07
  0.302535E-07  0.143109E-07  0.591802E-08  0.213961E-08
  0.675780E-09  0.675780E-09  0.213961E-08  0.591802E-08
  0.143109E-07  0.302535E-07  0.558613E-07  0.899162E-07
  0.125751E-06  0.151982E-06  0.157391E-06  0.137805E-06
  0.999354E-07  0.582643E-07  0.263006E-07  0.886436E-08
  0.886436E-08  0.263006E-07  0.582643E-07  0.999354E-07
  0.137805E-06  0.157391E-06  0.151982E-06  0.125751E-06
  0.899162E-07  0.558613E-07  0.302535E-07  0.143109E-07
  0.591802E-08  0.213961E-08  0.675780E-09  0.656881E-09
  0.204700E-08  0.560094E-08  0.134508E-07  0.283327E-07
  0.522888E-07  0.844115E-07  0.118906E-06  0.145632E-06
  0.154301E-06  0.140489E-06  0.109169E-06  0.724106E-07
  0.425082E-07  0.263247E-07  0.263247E-07  0.425082E-07
  0.724106E-07  0.109169E-06  0.140489E-06  0.154301E-06
  0.145632E-06  0.118906E-06  0.844115E-07  0.522888E-07
  0.283327E-07  0.134508E-07  0.560094E-08  0.204700E-08
  0.656881E-09  0.614658E-09  0.186454E-08  0.500656E-08
  0.118800E-07  0.248786E-07  0.459299E-07  0.746892E-07
  0.106910E-06  0.134659E-06  0.149298E-06  0.145983E-06
  0.126648E-06  0.991693E-07  0.734918E-07  0.580330E-07
  0.580330E-07  0.734918E-07  0.991693E-07  0.126648E-06
  0.145983E-06  0.149298E-06  0.134659E-06  0.106910E-06
  0.746892E-07  0.459299E-07  0.248786E-07  0.118800E-07
  0.500656E-08  0.186454E-08  0.614658E-09  0.545798E-09
  0.160457E-08  0.421241E-08  0.985524E-08  0.205204E-07
  0.380072E-07  0.626478E-07  0.920380E-07  0.120847E-06
  0.142372E-06  0.151308E-06  0.146223E-06  0.130493E-06
  0.111485E-06  0.983966E-07  0.983966E-07  0.111485E-06
  0.130493E-06  0.146223E-06  0.151308E-06  0.142372E-06
  0.120847E-06  0.920380E-07  0.626478E-07  0.380072E-07
  0.205204E-07  0.985524E-08  0.421241E-08  0.160457E-08
  0.545798E-09  0.453544E-09  0.129362E-08  0.332144E-08
  0.766812E-08  0.159119E-07  0.296961E-07  0.499359E-07
  0.758747E-07  0.104535E-06  0.131041E-06  0.149969E-06
  0.157458E-06  0.153414E-06  0.142638E-06  0.133582E-06
  0.133582E-06  0.142638E-06  0.153414E-06  0.157458E-06
  0.149969E-06  0.131041E-06  0.104535E-06  0.758747E-07
  0.499359E-07  0.296961E-07  0.159119E-07  0.766812E-08
  0.332144E-08  0.129362E-08  0.453544E-09  0.348593E-09
  0.968768E-09  0.244012E-08  0.557458E-08  0.115657E-07
  0.218335E-07  0.375956E-07  0.591935E-07  0.853618E-07
  0.112824E-06  0.136734E-06  0.152330E-06  0.157461E-06
  0.154543E-06  0.150034E-06  0.150034E-06  0.154543E-06
  0.157461E-06  0.152330E-06  0.136734E-06  0.112824E-06
  0.853618E-07  0.591935E-07  0.375956E-07  0.218335E-07
  0.115657E-07  0.557458E-08  0.244012E-08  0.968768E-09
  0.348593E-09  0.245456E-09  0.668139E-09  0.165743E-08
  0.375849E-08  0.781569E-08  0.149480E-07  0.263513E-07
  0.428506E-07  0.642178E-07  0.885156E-07  0.112043E-06
  0.130417E-06  0.140712E-06  0.143478E-06  0.142755E-06
  0.142755E-06  0.143478E-06  0.140712E-06  0.130417E-06
  0.112043E-06  0.885156E-07  0.642178E-07  0.428506E-07
  0.263513E-07  0.149480E-07  0.781569E-08  0.375849E-08
  0.165743E-08  0.668139E-09  0.245456E-09  0.157074E-09
  0.420699E-09  0.103121E-08  0.232578E-08  0.485075E-08
  0.939039E-08  0.168985E-07  0.282378E-07  0.436757E-07
  0.622819E-07  0.816497E-07  0.984486E-07  0.109904E-06
  0.115450E-06  0.117030E-06  0.117030E-06  0.115450E-06
  0.109904E-06  0.984486E-07  0.816497E-07  0.622819E-07
  0.436757E-07  0.282378E-07  0.168985E-07  0.939039E-08
  0.485075E-08  0.232578E-08  0.103121E-08  0.420699E-09
  0.157074E-09  0.907202E-10  0.239827E-09  0.581928E-09
  0.130588E-08  0.272883E-08  0.533443E-08  0.976604E-08
  0.167021E-07  0.265497E-07  0.390076E-07  0.527512E-07
  0.656189E-07  0.754713E-07  0.813199E-07  0.837197E-07
  0.837197E-07  0.813199E-07  0.754713E-07  0.656189E-07
  0.527512E-07  0.390076E-07  0.265497E-07  0.167021E-07
  0.976604E-08  0.533443E-08  0.272883E-08  0.130588E-08
  0.581928E-09  0.239827E-09  0.907202E-10  0.470101E-10
  0.122839E-09  0.295120E-09  0.658221E-09  0.137518E-08
  0.270765E-08  0.503094E-08  0.879000E-08  0.143439E-07
  0.216975E-07  0.302463E-07  0.387736E-07  0.458690E-07
  0.505912E-07  0.528106E-07  0.528106E-07  0.505912E-07
  0.458690E-07  0.387736E-07  0.302463E-07  0.216975E-07
  0.143439E-07  0.879000E-08  0.503094E-08  0.270765E-08
  0.137518E-08  0.658221E-09  0.295120E-09  0.122839E-09
  0.470101E-10  0.217414E-10  0.561564E-10  0.133426E-09
  0.295112E-09  0.614828E-09  0.121685E-08  0.229328E-08
  0.409736E-08  0.687746E-08  0.107341E-07  0.154508E-07
  0.204302E-07  0.248580E-07  0.280417E-07  0.296549E-07
  0.296549E-07  0.280417E-07  0.248580E-07  0.204302E-07
  0.154508E-07  0.107341E-07  0.687746E-08  0.409736E-08
  0.229328E-08  0.121685E-08  0.614828E-09  0.295112E-09
  0.133426E-09  0.561564E-10  0.217414E-10  0.893438E-11
  0.227817E-10  0.534012E-10  0.116761E-09  0.241896E-09
  0.480790E-09  0.920782E-09  0.168954E-08  0.293235E-08
  0.474490E-08  0.707720E-08  0.967241E-08  0.121130E-07
  0.139721E-07  0.149614E-07  0.149614E-07  0.139721E-07
  0.121130E-07  0.967241E-08  0.707720E-08  0.474490E-08
  0.293235E-08  0.168954E-08  0.920782E-09  0.480790E-09
  0.241896E-09  0.116761E-09  0.534012E-10  0.227817E-10
  0.893438E-11  0.324894E-11  0.815860E-11  0.187989E-10
  0.404627E-10  0.831182E-10  0.166039E-09  0.324930E-09
  0.617637E-09  0.111831E-08  0.188921E-08  0.293310E-08
  0.415298E-08  0.535648E-08  0.631533E-08  0.684347E-08
  0.684347E-08  0.631533E-08  0.535648E-08  0.415298E-08
  0.293310E-08  0.188921E-08  0.111831E-08  0.617637E-09
  0.324930E-09  0.166039E-09  0.831182E-10  0.404627E-10
  0.187989E-10  0.815860E-11  0.324894E-11  0.104151E-11
  0.256580E-11  0.578129E-11  0.121818E-10  0.247397E-10
  0.498644E-10  0.100872E-09  0.201586E-09  0.385571E-09
  0.685528E-09  0.111238E-08  0.163393E-08  0.216978E-08
  0.261198E-08  0.286175E-08  0.286175E-08  0.261198E-08
  0.216978E-08  0.163393E-08  0.111238E-08  0.685528E-09
  0.385571E-09  0.201586E-09  0.100872E-09  0.498644E-10
  0.247397E-10  0.121818E-10  0.578129E-11  0.256580E-11
  0.104151E-11  0.293165E-12  0.704913E-12  0.154057E-11
  0.315252E-11  0.631519E-11  0.129756E-10  0.277379E-10
  0.595934E-10  0.122149E-09  0.230051E-09  0.390758E-09
  0.594838E-09  0.811592E-09  0.995375E-09  0.110111E-08
  0.110111E-08  0.995375E-09  0.811592E-09  0.594838E-09
  0.390758E-09  0.230051E-09  0.122149E-09  0.595934E-10
  0.277379E-10  0.129756E-10  0.631519E-11  0.315252E-11
  0.154057E-11  0.704913E-12  0.293165E-12  0.161389E-11
  0.380312E-11  0.807510E-11  0.158744E-10  0.303679E-10
  0.602294E-10  0.127666E-09  0.278340E-09  0.583629E-09
  0.112263E-08  0.193885E-08  0.298760E-08  0.411065E-08
  0.506808E-08  0.562065E-08  0.562065E-08  0.506808E-08
  0.411065E-08  0.298760E-08  0.193885E-08  0.112263E-08
  0.583629E-09  0.278340E-09  0.127666E-09  0.602294E-10
  0.303679E-10  0.158744E-10  0.807510E-11  0.380312E-11
  0.161389E-11  0.571857E-11  0.138288E-10  0.303690E-10
  0.619118E-10  0.121222E-09  0.236877E-09  0.471926E-09
  0.945056E-09  0.183003E-08  0.330297E-08  0.543310E-08
  0.806735E-08  0.107977E-07  0.130646E-07  0.143497E-07
  0.143497E-07  0.130646E-07  0.107977E-07  0.806735E-08
  0.543310E-08  0.330297E-08  0.183003E-08  0.945056E-09
  0.471926E-09  0.236877E-09  0.121222E-09  0.619118E-10
  0.303690E-10  0.138288E-10  0.571857E-11  0.177752E-10
  0.438467E-10  0.987092E-10  0.206544E-09  0.411582E-09
  0.800605E-09  0.154099E-08  0.291629E-08  0.530558E-08
  0.904493E-08  0.141806E-07  0.202506E-07  0.262910E-07
  0.311336E-07  0.338112E-07  0.338112E-07  0.311336E-07
  0.262910E-07  0.202506E-07  0.141806E-07  0.904493E-08
  0.530558E-08  0.291629E-08  0.154099E-08  0.800605E-09
  0.411582E-09  0.206544E-09  0.987092E-10  0.438467E-10
  0.177752E-10  0.486596E-10  0.121943E-09  0.279761E-09
  0.596615E-09  0.120440E-08  0.233977E-08  0.441068E-08
  0.803554E-08  0.139490E-07  0.226745E-07  0.340305E-07
  0.467908E-07  0.588864E-07  0.681550E-07  0.731057E-07
  0.731057E-07  0.681550E-07  0.588864E-07  0.467908E-07
  0.340305E-07  0.226745E-07  0.139490E-07  0.803554E-08
  0.441068E-08  0.233977E-08  0.120440E-08  0.596615E-09
  0.279761E-09  0.121943E-09  0.486596E-10  0.117765E-09
  0.299033E-09  0.696278E-09  0.150590E-08  0.306755E-08
  0.595279E-08  0.110592E-07  0.196041E-07  0.328326E-07
  0.513261E-07  0.741364E-07  0.984071E-07  0.120134E-06
  0.135840E-06  0.143827E-06  0.143827E-06  0.135840E-06
  0.120134E-06  0.984071E-07  0.741364E-07  0.513261E-07
  0.328326E-07  0.196041E-07  0.110592E-07  0.595279E-08
  0.306755E-08  0.150590E-08  0.696278E-09  0.299033E-09
  0.117765E-09  0.252940E-09  0.649909E-09  0.153185E-08
  0.334792E-08  0.685827E-08  0.132764E-07  0.243598E-07
  0.422381E-07  0.687034E-07  0.103916E-06  0.145096E-06
  0.186417E-06  0.220985E-06  0.244089E-06  0.254985E-06
  0.254985E-06  0.244089E-06  0.220985E-06  0.186417E-06
  0.145096E-06  0.103916E-06  0.687034E-07  0.422381E-07
  0.243598E-07  0.132764E-07  0.685827E-08  0.334792E-08
  0.153185E-08  0.649909E-09  0.252940E-09  0.484222E-09
  0.125893E-08  0.300009E-08  0.660998E-08  0.135774E-07
  0.261596E-07  0.473782E-07  0.804758E-07  0.127490E-06
  0.187142E-06  0.253218E-06  0.315348E-06  0.363115E-06
  0.391572E-06  0.403283E-06  0.403283E-06  0.391572E-06
  0.363115E-06  0.315348E-06  0.253218E-06  0.187142E-06
  0.127490E-06  0.804758E-07  0.473782E-07  0.261596E-07
  0.135774E-07  0.660998E-08  0.300009E-08  0.125893E-08
  0.484222E-09  0.830208E-09  0.218761E-08  0.527262E-08
  0.116988E-07  0.240420E-07  0.459796E-07  0.820037E-07
  0.136239E-06  0.210074E-06  0.299223E-06  0.392276E-06
  0.473234E-06  0.528618E-06  0.555512E-06  0.563202E-06
  0.563202E-06  0.555512E-06  0.528618E-06  0.473234E-06
  0.392276E-06  0.299223E-06  0.210074E-06  0.136239E-06
  0.820037E-07  0.459796E-07  0.240420E-07  0.116988E-07
  0.527262E-08  0.218761E-08  0.830208E-09  0.128194E-08
  0.343540E-08  0.839264E-08  0.187639E-07  0.385423E-07
  0.729926E-07  0.127757E-06  0.206792E-06  0.309125E-06
  0.425645E-06  0.538696E-06  0.627189E-06  0.676894E-06
  0.690316E-06  0.686864E-06  0.686864E-06  0.690316E-06
  0.676894E-06  0.627189E-06  0.538696E-06  0.425645E-06
  0.309125E-06  0.206792E-06  0.127757E-06  0.729926E-07
  0.385423E-07  0.187639E-07  0.839264E-08  0.343540E-08
  0.128194E-08  0.179444E-08  0.491628E-08  0.122207E-07
  0.275966E-07  0.567051E-07  0.106245E-06  0.181965E-06
  0.285515E-06  0.410974E-06  0.542784E-06  0.657732E-06
  0.732871E-06  0.757686E-06  0.743691E-06  0.721981E-06
  0.721981E-06  0.743691E-06  0.757686E-06  0.732871E-06
  0.657732E-06  0.542784E-06  0.410974E-06  0.285515E-06
  0.181965E-06  0.106245E-06  0.567051E-07  0.275966E-07
  0.122207E-07  0.491628E-08  0.179444E-08  0.229508E-08
  0.646869E-08  0.164382E-07  0.376252E-07  0.775419E-07
  0.143967E-06  0.241208E-06  0.365662E-06  0.503183E-06
  0.630502E-06  0.721580E-06  0.757743E-06  0.738388E-06
  0.686556E-06  0.642947E-06  0.642947E-06  0.686556E-06
  0.738388E-06  0.757743E-06  0.721580E-06  0.630502E-06
  0.503183E-06  0.365662E-06  0.241208E-06  0.143967E-06
  0.775419E-07  0.376252E-07  0.164382E-07  0.646869E-08
  0.229508E-08  0.270899E-08  0.789896E-08  0.205994E-07
  0.479416E-07  0.994249E-07  0.183611E-06  0.302037E-06
  0.443181E-06  0.581544E-06  0.685022E-06  0.728098E-06
  0.703766E-06  0.628157E-06  0.536692E-06  0.473673E-06
  0.473673E-06  0.536692E-06  0.628157E-06  0.703766E-06
  0.728098E-06  0.685022E-06  0.581544E-06  0.443181E-06
  0.302037E-06  0.183611E-06  0.994249E-07  0.479416E-07
  0.205994E-07  0.789896E-08  0.270899E-08  0.299021E-08
  0.904083E-08  0.242159E-07  0.573556E-07  0.119948E-06
  0.221234E-06  0.359532E-06  0.514454E-06  0.647908E-06
  0.718375E-06  0.702531E-06  0.609598E-06  0.477402E-06
  0.353816E-06  0.279391E-06  0.279391E-06  0.353816E-06
  0.477402E-06  0.609598E-06  0.702531E-06  0.718375E-06
  0.647908E-06  0.514454E-06  0.359532E-06  0.221234E-06
  0.119948E-06  0.573556E-07  0.242159E-07  0.904083E-08
  0.299021E-08  0.313986E-08  0.980292E-08  0.268596E-07
  0.645692E-07  0.136109E-06  0.251330E-06  0.405889E-06
  0.571926E-06  0.700658E-06  0.742525E-06  0.676183E-06
  0.525507E-06  0.348598E-06  0.204653E-06  0.126741E-06
  0.126741E-06  0.204653E-06  0.348598E-06  0.525507E-06
  0.676183E-06  0.742525E-06  0.700658E-06  0.571926E-06
  0.405889E-06  0.251330E-06  0.136109E-06  0.645692E-07
  0.268596E-07  0.980292E-08  0.313986E-08  0.319597E-08
  0.101734E-07  0.282456E-07  0.684859E-07  0.145058E-06
  0.268202E-06  0.432113E-06  0.604721E-06  0.731197E-06
  0.757458E-06  0.663334E-06  0.481101E-06  0.280506E-06
  0.126625E-06  0.426788E-07  0.426788E-07  0.126625E-06
  0.280506E-06  0.481101E-06  0.663334E-06  0.757458E-06
  0.731197E-06  0.604721E-06  0.432113E-06  0.268202E-06
  0.145058E-06  0.684859E-07  0.282456E-07  0.101734E-07
  0.319597E-08  0.319597E-08  0.101734E-07  0.282456E-07
  0.684859E-07  0.145058E-06  0.268202E-06  0.432113E-06
  0.604721E-06  0.731197E-06  0.757458E-06  0.663334E-06
  0.481101E-06  0.280506E-06  0.126625E-06  0.426788E-07
  0.426788E-07  0.126625E-06  0.280506E-06  0.481101E-06
  0.663334E-06  0.757458E-06  0.731197E-06  0.604721E-06
  0.432113E-06  0.268202E-06  0.145058E-06  0.684859E-07
  0.282456E-07  0.101734E-07  0.319597E-08  0.313986E-08
  0.980292E-08  0.268596E-07  0.645692E-07  0.136109E-06
  0.251330E-06  0.405889E-06  0.571926E-06  0.700658E-06
  0.742525E-06  0.676183E-06  0.525507E-06  0.348598E-06
  0.204653E-06  0.126741E-06  0.126741E-06  0.204653E-06
  0.348598E-06  0.525507E-06  0.676183E-06  0.742525E-06
  0.700658E-06  0.571926E-06  0.405889E-06  0.251330E-06
  0.136109E-06  0.645692E-07  0.268596E-07  0.980292E-08
  0.313986E-08  0.299021E-08  0.904083E-08  0.242159E-07
  0.573556E-07  0.119948E-06  0.221234E-06  0.359532E-06
  0.514454E-06  0.647908E-06  0.718375E-06  0.702531E-06
  0.609598E-06  0.477402E-06  0.353816E-06  0.279391E-06
  0.279391E-06  0.353816E-06  0.477402E-06  0.609598E-06
  0.702531E-06  0.718375E-06  0.647908E-06  0.514454E-06
  0.359532E-06  0.221234E-06  0.119948E-06  0.573556E-07
  0.242159E-07  0.904083E-08  0.299021E-08  0.270899E-08
  0.789896E-08  0.205994E-07  0.479416E-07  0.994249E-07
  0.183611E-06  0.302037E-06  0.443181E-06  0.581544E-06
  0.685022E-06  0.728098E-06  0.703766E-06  0.628157E-06
  0.536692E-06  0.473673E-06  0.473673E-06  0.536692E-06
  0.628157E-06  0.703766E-06  0.728098E-06  0.685022E-06
  0.581544E-06  0.443181E-06  0.302037E-06  0.183611E-06
  0.994249E-07  0.479416E-07  0.205994E-07  0.789896E-08
  0.270899E-08  0.229508E-08  0.646869E-08  0.164382E-07
  0.376252E-07  0.775419E-07  0.143967E-06  0.241208E-06
  0.365662E-06  0.503183E-06  0.630502E-06  0.721580E-06
  0.757743E-06  0.738388E-06  0.686556E-06  0.642947E-06
  0.642947E-06  0.686556E-06  0.738388E-06  0.757743E-06
  0.721580E-06  0.630502E-06  0.503183E-06  0.365662E-06
  0.241208E-06  0.143967E-06  0.775419E-07  0.376252E-07
  0.164382E-07  0.646869E-08  0.229508E-08  0.179444E-08
  0.491628E-08  0.122207E-07  0.275966E-07  0.567051E-07
  0.106245E-06  0.181965E-06  0.285515E-06  0.410974E-06
  0.542784E-06  0.657732E-06  0.732871E-06  0.757686E-06
  0.743691E-06  0.721981E-06  0.721981E-06  0.743691E-06
  0.757686E-06  0.732871E-06  0.657732E-06  0.542784E-06
  0.410974E-06  0.285515E-06  0.181965E-06  0.106245E-06
  0.567051E-07  0.275966E-07  0.122207E-07  0.491628E-08
  0.179444E-08  0.128194E-08  0.343540E-08  0.839264E-08
  0.187639E-07  0.385423E-07  0.729926E-07  0.127757E-06
  0.206792E-06  0.309125E-06  0.425645E-06  0.538696E-06
  0.627189E-06  0.676894E-06  0.690316E-06  0.686864E-06
  0.686864E-06  0.690316E-06  0.676894E-06  0.627189E-06
  0.538696E-06  0.425645E-06  0.309125E-06  0.206792E-06
  0.127757E-06  0.729926E-07  0.385423E-07  0.187639E-07
  0.839264E-08  0.343540E-08  0.128194E-08  0.830208E-09
  0.218761E-08  0.527262E-08  0.116988E-07  0.240420E-07
  0.459796E-07  0.820037E-07  0.136239E-06  0.210074E-06
  0.299223E-06  0.392276E-06  0.473234E-06  0.528618E-06
  0.555512E-06  0.563202E-06  0.563202E-06  0.555512E-06
  0.528618E-06  0.473234E-06  0.392276E-06  0.299223E-06
  0.210074E-06  0.136239E-06  0.820037E-07  0.459796E-07
  0.240420E-07  0.116988E-07  0.527262E-08  0.218761E-08
  0.830208E-09  0.484222E-09  0.125893E-08  0.300009E-08
  0.660998E-08  0.135774E-07  0.261596E-07  0.473782E-07
  0.804758E-07  0.127490E-06  0.187142E-06  0.253218E-06
  0.315348E-06  0.363115E-06  0.391572E-06  0.403283E-06
  0.403283E-06  0.391572E-06  0.363115E-06  0.315348E-06
  0.253218E-06  0.187142E-06  0.127490E-06  0.804758E-07
  0.473782E-07  0.261596E-07  0.135774E-07  0.660998E-08
  0.300009E-08  0.125893E-08  0.484222E-09  0.252940E-09
  0.649909E-09  0.153185E-08  0.334792E-08  0.685827E-08
  0.132764E-07  0.243598E-07  0.422381E-07  0.687034E-07
  0.103916E-06  0.145096E-06  0.186417E-06  0.220985E-06
  0.244089E-06  0.254985E-06  0.254985E-06  0.244089E-06
  0.220985E-06  0.186417E-06  0.145096E-06  0.103916E-06
  0.687034E-07  0.422381E-07  0.243598E-07  0.132764E-07
  0.685827E-08  0.334792E-08  0.153185E-08  0.649909E-09
  0.252940E-09  0.117765E-09  0.299033E-09  0.696278E-09
  0.150590E-08  0.306755E-08  0.595279E-08  0.110592E-07
  0.196041E-07  0.328326E-07  0.513261E-07  0.741364E-07
  0.984071E-07  0.120134E-06  0.135840E-06  0.143827E-06
  0.143827E-06  0.135840E-06  0.120134E-06  0.984071E-07
  0.741364E-07  0.513261E-07  0.328326E-07  0.196041E-07
  0.110592E-07  0.595279E-08  0.306755E-08  0.150590E-08
  0.696278E-09  0.299033E-09  0.117765E-09  0.486596E-10
  0.121943E-09  0.279761E-09  0.596615E-09  0.120440E-08
  0.233977E-08  0.441068E-08  0.803554E-08  0.139490E-07
  0.226745E-07  0.340305E-07  0.467908E-07  0.588864E-07
  0.681550E-07  0.731057E-07  0.731057E-07  0.681550E-07
  0.588864E-07  0.467908E-07  0.340305E-07  0.226745E-07
  0.139490E-07  0.803554E-08  0.441068E-08  0.233977E-08
  0.120440E-08  0.596615E-09  0.279761E-09  0.121943E-09
  0.486596E-10  0.177752E-10  0.438467E-10  0.987092E-10
  0.206544E-09  0.411582E-09  0.800605E-09  0.154099E-08
  0.291629E-08  0.530558E-08  0.904493E-08  0.141806E-07
  0.202506E-07  0.262910E-07  0.311336E-07  0.338112E-07
  0.338112E-07  0.311336E-07  0.262910E-07  0.202506E-07
  0.141806E-07  0.904493E-08  0.530558E-08  0.291629E-08
  0.154099E-08  0.800605E-09  0.411582E-09  0.206544E-09
  0.987092E-10  0.438467E-10  0.177752E-10  0.571857E-11
  0.138288E-10  0.303690E-10  0.619118E-10  0.121222E-09
  0.236877E-09  0.471926E-09  0.945056E-09  0.183003E-08
  0.330297E-08  0.543310E-08  0.806735E-08  0.107977E-07
  0.130646E-07  0.143497E-07  0.143497E-07  0.130646E-07
  0.107977E-07  0.806735E-08  0.543310E-08  0.330297E-08
  0.183003E-08  0.945056E-09  0.471926E-09  0.236877E-09
  0.121222E-09  0.619118E-10  0.303690E-10  0.138288E-10
  0.571857E-11  0.161389E-11  0.380312E-11  0.807510E-11
  0.158744E-10  0.303679E-10  0.602294E-10  0.127666E-09
  0.278340E-09  0.583629E-09  0.112263E-08  0.193885E-08
  0.298760E-08  0.411065E-08  0.506808E-08  0.562065E-08
  0.562065E-08  0.506808E-08  0.411065E-08  0.298760E-08
  0.193885E-08  0.112263E-08  0.583629E-09  0.278340E-09
  0.127666E-09  0.602294E-10  0.303679E-10  0.158744E-10
  0.807510E-11  0.380312E-11  0.161389E-11  0.787298E-11
  0.181980E-10  0.375076E-10  0.705776E-10  0.127809E-09
  0.241919E-09  0.506632E-09  0.112721E-08  0.243541E-08
  0.480969E-08  0.847340E-08  0.132422E-07  0.183943E-07
  0.228124E-07  0.253707E-07  0.253707E-07  0.228124E-07
  0.183943E-07  0.132422E-07  0.847340E-08  0.480969E-08
  0.243541E-08  0.112721E-08  0.506632E-09  0.241919E-09
  0.127809E-09  0.705776E-10  0.375076E-10  0.181980E-10
  0.787298E-11  0.278235E-10  0.660752E-10  0.141367E-09
  0.278155E-09  0.521981E-09  0.981147E-09  0.191544E-08
  0.384628E-08  0.757066E-08  0.139292E-07  0.233012E-07
  0.350519E-07  0.473515E-07  0.576326E-07  0.634835E-07
  0.634835E-07  0.576326E-07  0.473515E-07  0.350519E-07
  0.233012E-07  0.139292E-07  0.757066E-08  0.384628E-08
  0.191544E-08  0.981147E-09  0.521981E-09  0.278155E-09
  0.141367E-09  0.660752E-10  0.278235E-10  0.861827E-10
  0.208912E-09  0.459309E-09  0.932330E-09  0.179456E-08
  0.337964E-08  0.636832E-08  0.119821E-07  0.219358E-07
  0.378382E-07  0.600589E-07  0.866752E-07  0.113428E-06
  0.135029E-06  0.147025E-06  0.147025E-06  0.135029E-06
  0.113428E-06  0.866752E-07  0.600589E-07  0.378382E-07
  0.219358E-07  0.119821E-07  0.636832E-08  0.337964E-08
  0.179456E-08  0.932330E-09  0.459309E-09  0.208912E-09
  0.861827E-10  0.234903E-09  0.578682E-09  0.129862E-08
  0.269611E-08  0.528503E-08  0.999036E-08  0.184638E-07
  0.333301E-07  0.578712E-07  0.946295E-07  0.143150E-06
  0.198324E-06  0.251113E-06  0.291849E-06  0.313704E-06
  0.313704E-06  0.291849E-06  0.251113E-06  0.198324E-06
  0.143150E-06  0.946295E-07  0.578712E-07  0.333301E-07
  0.184638E-07  0.999036E-08  0.528503E-08  0.269611E-08
  0.129862E-08  0.578682E-09  0.234903E-09  0.565451E-09
  0.141162E-08  0.321878E-08  0.679487E-08  0.134929E-07
  0.255794E-07  0.466905E-07  0.819437E-07  0.136849E-06
  0.214374E-06  0.311023E-06  0.414869E-06  0.508595E-06
  0.576777E-06  0.611595E-06  0.611595E-06  0.576777E-06
  0.508595E-06  0.414869E-06  0.311023E-06  0.214374E-06
  0.136849E-06  0.819437E-07  0.466905E-07  0.255794E-07
  0.134929E-07  0.679487E-08  0.321878E-08  0.141162E-08
  0.565451E-09  0.120658E-08  0.304780E-08  0.704126E-08
  0.150521E-07  0.301517E-07  0.572090E-07  0.103365E-06
  0.177528E-06  0.287586E-06  0.434926E-06  0.608558E-06
  0.784105E-06  0.931942E-06  0.103130E-05  0.107834E-05
  0.107834E-05  0.103130E-05  0.931942E-06  0.784105E-06
  0.608558E-06  0.434926E-06  0.287586E-06  0.177528E-06
  0.103365E-06  0.572090E-07  0.301517E-07  0.150521E-07
  0.704126E-08  0.304780E-08  0.120658E-08  0.229127E-08
  0.585598E-08  0.136898E-07  0.295572E-07  0.595295E-07
  0.112741E-06  0.201522E-06  0.339407E-06  0.535401E-06
  0.785017E-06  0.106297E-05  0.132579E-05  0.152890E-05
  0.165047E-05  0.170068E-05  0.170068E-05  0.165047E-05
  0.152890E-05  0.132579E-05  0.106297E-05  0.785017E-06
  0.535401E-06  0.339407E-06  0.201522E-06  0.112741E-06
  0.595295E-07  0.295572E-07  0.136898E-07  0.585598E-08
  0.229127E-08  0.388933E-08  0.100747E-07  0.238436E-07
  0.519420E-07  0.104935E-06  0.197797E-06  0.348930E-06
  0.575570E-06  0.884087E-06  0.125749E-05  0.164868E-05
  0.199040E-05  0.222513E-05  0.233957E-05  0.237244E-05
  0.237244E-05  0.233957E-05  0.222513E-05  0.199040E-05
  0.164868E-05  0.125749E-05  0.884087E-06  0.575570E-06
  0.348930E-06  0.197797E-06  0.104935E-06  0.519420E-07
  0.238436E-07  0.100747E-07  0.388933E-08  0.593125E-08
  0.156309E-07  0.375448E-07  0.825944E-07  0.167226E-06
  0.312969E-06  0.543011E-06  0.873942E-06  0.130235E-05
  0.179103E-05  0.226645E-05  0.263978E-05  0.285019E-05
  0.290735E-05  0.289289E-05  0.289289E-05  0.290735E-05
  0.285019E-05  0.263978E-05  0.226645E-05  0.179103E-05