<?xml version="1.0"?>
 <VTKFile type="ImageData" version="0.1" byte_order="LittleEndian">
   <ImageData WholeExtent="           0          29           0          29           0          29 " Origin="  -8.0000000000000000       -8.0000000000000000       -8.0000000000000000      " Spacing="  0.55172413793103448       0.55172413793103448       0.55172413793103448      ">
   <Piece Extent="           0          29           0          29           0          29 ">
   <PointData Scalars="scalars">
   <DataArray Name="vectors" type="Float64" NumberOfComponents="3" Format="ascii">
  0.124703E-12 -0.922731E-13 -0.145981E-14
  0.311442E-12 -0.205262E-12 -0.430989E-14
  0.702902E-12 -0.412813E-12 -0.110068E-13
  0.147039E-11 -0.787659E-12 -0.238787E-13
  0.296781E-11 -0.153569E-11 -0.420138E-13
  0.604943E-11 -0.324795E-11 -0.520011E-13
  0.127341E-10 -0.730026E-11 -0.124256E-13
  0.271214E-10 -0.160900E-10  0.158669E-12
  0.559124E-10 -0.324286E-10  0.569916E-12
  0.107337E-09 -0.574217E-10  0.128911E-11
  0.187444E-09 -0.872793E-10  0.222954E-11
  0.294363E-09 -0.111465E-09  0.306951E-11
  0.413655E-09 -0.115446E-09  0.332619E-11
  0.519199E-09 -0.887097E-10  0.262350E-11
  0.581720E-09 -0.334596E-10  0.100150E-11
  0.581720E-09  0.334596E-10 -0.100150E-11
  0.519199E-09  0.887097E-10 -0.262350E-11
  0.413655E-09  0.115446E-09 -0.332619E-11
  0.294363E-09  0.111465E-09 -0.306951E-11
  0.187444E-09  0.872793E-10 -0.222954E-11
  0.107337E-09  0.574217E-10 -0.128911E-11
  0.559124E-10  0.324286E-10 -0.569916E-12
  0.271214E-10  0.160900E-10 -0.158669E-12
  0.127341E-10  0.730026E-11  0.124256E-13
  0.604943E-11  0.324795E-11  0.520011E-13
  0.296781E-11  0.153569E-11  0.420138E-13
  0.147039E-11  0.787659E-12  0.238787E-13
  0.702902E-12  0.412813E-12  0.110068E-13
  0.311442E-12  0.205262E-12  0.430989E-14
  0.124703E-12  0.922731E-13  0.145981E-14
  0.425716E-12 -0.349999E-12 -0.470203E-14
  0.109373E-11 -0.804405E-12 -0.142972E-13
  0.255500E-11 -0.168227E-11 -0.377516E-13
  0.553276E-11 -0.330706E-11 -0.856421E-13
  0.114093E-10 -0.641828E-11 -0.162141E-12
  0.230606E-10 -0.128232E-10 -0.238729E-12
  0.464036E-10 -0.263820E-10 -0.206887E-12
  0.923168E-10 -0.534514E-10  0.161541E-12
  0.177259E-09 -0.101037E-09  0.118228E-11
  0.319897E-09 -0.171043E-09  0.307093E-11
  0.531909E-09 -0.252087E-09  0.561965E-11
  0.805079E-09 -0.315257E-09  0.796090E-11
  0.110209E-08 -0.321995E-09  0.876260E-11
  0.136024E-08 -0.245317E-09  0.697012E-11
  0.151156E-08 -0.921516E-10  0.267076E-11
  0.151156E-08  0.921516E-10 -0.267076E-11
  0.136024E-08  0.245317E-09 -0.697012E-11
  0.110209E-08  0.321995E-09 -0.876260E-11
  0.805079E-09  0.315257E-09 -0.796090E-11
  0.531909E-09  0.252087E-09 -0.561965E-11
  0.319897E-09  0.171043E-09 -0.307093E-11
  0.177259E-09  0.101037E-09 -0.118228E-11
  0.923168E-10  0.534514E-10 -0.161541E-12
  0.464036E-10  0.263820E-10  0.206887E-12
  0.230606E-10  0.128232E-10  0.238729E-12
  0.114093E-10  0.641828E-11  0.162141E-12
  0.553276E-11  0.330706E-11  0.856421E-13
  0.255500E-11  0.168227E-11  0.377516E-13
  0.109373E-11  0.804405E-12  0.142972E-13
  0.425716E-12  0.349999E-12  0.470203E-14
  0.126402E-11 -0.116531E-11 -0.128386E-13
  0.332884E-11 -0.274894E-11 -0.404649E-13
  0.799833E-11 -0.591407E-11 -0.110825E-12
  0.178040E-10 -0.118920E-10 -0.261991E-12
  0.374224E-10 -0.231063E-10 -0.524834E-12
  0.756487E-10 -0.446833E-10 -0.855212E-12
  0.148587E-09 -0.865218E-10 -0.100827E-11
  0.282811E-09 -0.163835E-09 -0.416232E-12
  0.514748E-09 -0.291962E-09  0.174849E-11
  0.881128E-09 -0.472267E-09  0.611012E-11
  0.139845E-08 -0.673272E-09  0.122588E-10
  0.203791E-08 -0.822386E-09  0.181172E-10
  0.271124E-08 -0.826608E-09  0.203904E-10
  0.328321E-08 -0.623515E-09  0.164120E-10
  0.361389E-08 -0.233103E-09  0.632145E-11
  0.361389E-08  0.233103E-09 -0.632145E-11
  0.328321E-08  0.623515E-09 -0.164120E-10
  0.271124E-08  0.826608E-09 -0.203904E-10
  0.203791E-08  0.822386E-09 -0.181172E-10
  0.139845E-08  0.673272E-09 -0.122588E-10
  0.881128E-09  0.472267E-09 -0.611012E-11
  0.514748E-09  0.291962E-09 -0.174849E-11
  0.282811E-09  0.163835E-09  0.416232E-12
  0.148587E-09  0.865218E-10  0.100827E-11
  0.756487E-10  0.446833E-10  0.855212E-12
  0.374224E-10  0.231063E-10  0.524834E-12
  0.178040E-10  0.118920E-10  0.261991E-12
  0.799833E-11  0.591407E-11  0.110825E-12
  0.332884E-11  0.274894E-11  0.404649E-13
  0.126402E-11  0.116531E-11  0.128386E-13
  0.326855E-11 -0.341592E-11 -0.291032E-13
  0.880230E-11 -0.823693E-11 -0.964643E-13
  0.216744E-10 -0.181300E-10 -0.276162E-12
  0.493932E-10 -0.371152E-10 -0.681113E-12
  0.105598E-09 -0.723355E-10 -0.143385E-11
  0.214338E-09 -0.137054E-09 -0.251344E-11
  0.415613E-09 -0.254309E-09 -0.344857E-11
  0.768717E-09 -0.456526E-09 -0.299133E-11
  0.134575E-08 -0.772544E-09  0.804676E-12
  0.220746E-08 -0.119650E-08  0.956963E-11
  0.336235E-08 -0.164919E-08  0.226978E-10
  0.472606E-08 -0.196500E-08  0.358028E-10
  0.610876E-08 -0.194118E-08  0.415861E-10
  0.725040E-08 -0.144830E-08  0.340273E-10
  0.789886E-08 -0.538593E-09  0.132001E-10
  0.789886E-08  0.538593E-09 -0.132001E-10
  0.725040E-08  0.144830E-08 -0.340273E-10
  0.610876E-08  0.194118E-08 -0.415861E-10
  0.472606E-08  0.196500E-08 -0.358028E-10
  0.336235E-08  0.164919E-08 -0.226978E-10
  0.220746E-08  0.119650E-08 -0.956963E-11
  0.134575E-08  0.772544E-09 -0.804676E-12
  0.768717E-09  0.456526E-09  0.299133E-11
  0.415613E-09  0.254309E-09  0.344857E-11
  0.214338E-09  0.137054E-09  0.251344E-11
  0.105598E-09  0.723355E-10  0.143385E-11
  0.493932E-10  0.371152E-10  0.681113E-12
  0.216744E-10  0.181300E-10  0.276162E-12
  0.880230E-11  0.823693E-11  0.964643E-13
  0.326855E-11  0.341592E-11  0.291032E-13
  0.735909E-11 -0.884349E-11 -0.523281E-13
  0.202477E-10 -0.217503E-10 -0.188375E-12
  0.509939E-10 -0.488313E-10 -0.573045E-12
  0.118687E-09 -0.101485E-09 -0.148906E-11
  0.257756E-09 -0.198508E-09 -0.329987E-11
  0.526301E-09 -0.370962E-09 -0.615061E-11
  0.101386E-08 -0.666866E-09 -0.930546E-11
  0.184016E-08 -0.114670E-08 -0.103648E-10
  0.313142E-08 -0.185456E-08 -0.525390E-11
  0.496612E-08 -0.275734E-08  0.982942E-11
  0.730339E-08 -0.367557E-08  0.344133E-10
  0.993256E-08 -0.426876E-08  0.604510E-10
  0.124854E-07 -0.414054E-08  0.736543E-10
  0.145214E-07 -0.305323E-08  0.616817E-10
  0.156520E-07 -0.112896E-08  0.241647E-10
  0.156520E-07  0.112896E-08 -0.241647E-10
  0.145214E-07  0.305323E-08 -0.616817E-10
  0.124854E-07  0.414054E-08 -0.736543E-10
  0.993256E-08  0.426876E-08 -0.604510E-10
  0.730339E-08  0.367557E-08 -0.344133E-10
  0.496612E-08  0.275734E-08 -0.982942E-11
  0.313142E-08  0.185456E-08  0.525390E-11
  0.184016E-08  0.114670E-08  0.103648E-10
  0.101386E-08  0.666866E-09  0.930546E-11
  0.526301E-09  0.370962E-09  0.615061E-11
  0.257756E-09  0.198508E-09  0.329987E-11
  0.118687E-09  0.101485E-09  0.148906E-11
  0.509939E-10  0.488313E-10  0.573045E-12
  0.202477E-10  0.217503E-10  0.188375E-12
  0.735909E-11  0.884349E-11  0.523281E-13
  0.144092E-10 -0.202785E-10 -0.648979E-13
  0.405082E-10 -0.508377E-10 -0.280186E-12
  0.104290E-09 -0.116242E-09 -0.951093E-12
  0.247652E-09 -0.244918E-09 -0.267119E-11
  0.546008E-09 -0.481045E-09 -0.630868E-11
  0.112278E-08 -0.890062E-09 -0.125122E-10
  0.215681E-08 -0.156057E-08 -0.204527E-10
  0.386486E-08 -0.258811E-08 -0.261615E-10
  0.643921E-08 -0.401886E-08 -0.221198E-10
  0.994032E-08 -0.574652E-08 -0.483371E-12
  0.141885E-07 -0.740714E-08  0.395913E-10
  0.187302E-07 -0.837652E-08  0.852514E-10
  0.229274E-07 -0.796811E-08  0.111774E-09
  0.261353E-07 -0.580175E-08  0.969214E-10
  0.278647E-07 -0.213194E-08  0.384980E-10
  0.278647E-07  0.213194E-08 -0.384980E-10
  0.261353E-07  0.580175E-08 -0.969214E-10
  0.229274E-07  0.796811E-08 -0.111774E-09
  0.187302E-07  0.837652E-08 -0.852514E-10
  0.141885E-07  0.740714E-08 -0.395913E-10
  0.994032E-08  0.574652E-08  0.483371E-12
  0.643921E-08  0.401886E-08  0.221198E-10
  0.386486E-08  0.258811E-08  0.261615E-10
  0.215681E-08  0.156057E-08  0.204527E-10
  0.112278E-08  0.890062E-09  0.125122E-10
  0.546008E-09  0.481045E-09  0.630868E-11
  0.247652E-09  0.244918E-09  0.267119E-11
  0.104290E-09  0.116242E-09  0.951093E-12
  0.405082E-10  0.508377E-10  0.280186E-12
  0.144092E-10  0.202785E-10  0.648979E-13
  0.244640E-10 -0.413061E-10 -0.152347E-13
  0.703882E-10 -0.105602E-09 -0.241382E-12
  0.185383E-09 -0.245888E-09 -0.112470E-11
  0.449190E-09 -0.525121E-09 -0.370074E-11
  0.100548E-08 -0.103641E-08 -0.967832E-11
  0.208420E-08 -0.190373E-08 -0.207794E-10
  0.400191E-08 -0.326974E-08 -0.366729E-10
  0.710759E-08 -0.525319E-08 -0.518384E-10
  0.116493E-07 -0.785356E-08 -0.542466E-10
  0.175882E-07 -0.108049E-07 -0.298198E-10
  0.244609E-07 -0.134498E-07  0.259871E-10
  0.314216E-07 -0.147793E-07  0.963348E-10
  0.374926E-07 -0.137587E-07  0.143012E-09
  0.418838E-07 -0.987620E-08  0.130168E-09
  0.441557E-07 -0.360362E-08  0.527259E-10
  0.441557E-07  0.360362E-08 -0.527259E-10
  0.418838E-07  0.987620E-08 -0.130168E-09
  0.374926E-07  0.137587E-07 -0.143012E-09
  0.314216E-07  0.147793E-07 -0.963348E-10
  0.244609E-07  0.134498E-07 -0.259871E-10
  0.175882E-07  0.108049E-07  0.298198E-10
  0.116493E-07  0.785356E-08  0.542466E-10
  0.710759E-08  0.525319E-08  0.518384E-10
  0.400191E-08  0.326974E-08  0.366729E-10
  0.208420E-08  0.190373E-08  0.207794E-10
  0.100548E-08  0.103641E-08  0.967832E-11
  0.449190E-09  0.525121E-09  0.370074E-11
  0.185383E-09  0.245888E-09  0.112470E-11
  0.703882E-10  0.105602E-09  0.241382E-12
  0.244640E-10  0.413061E-10  0.152347E-13
  0.358573E-10 -0.749875E-10  0.188146E-12
  0.105928E-09 -0.195808E-09  0.184725E-12
  0.286015E-09 -0.464731E-09 -0.459861E-12
  0.708033E-09 -0.100669E-08 -0.320510E-11
  0.161043E-08 -0.199885E-08 -0.108246E-10
  0.336848E-08 -0.365313E-08 -0.267715E-10
  0.647631E-08 -0.616600E-08 -0.523203E-10
  0.114291E-07 -0.962580E-08 -0.815366E-10
  0.184842E-07 -0.138744E-07 -0.979468E-10
  0.273779E-07 -0.183490E-07 -0.793876E-10
  0.371902E-07 -0.219943E-07 -0.153683E-10
  0.465485E-07 -0.233945E-07  0.775826E-10
  0.541434E-07 -0.212350E-07  0.149013E-09
  0.592274E-07 -0.149847E-07  0.146808E-09
  0.616919E-07 -0.542096E-08  0.612048E-10
  0.616919E-07  0.542096E-08 -0.612048E-10
  0.592274E-07  0.149847E-07 -0.146808E-09
  0.541434E-07  0.212350E-07 -0.149013E-09
  0.465485E-07  0.233945E-07 -0.775826E-10
  0.371902E-07  0.219943E-07  0.153683E-10
  0.273779E-07  0.183490E-07  0.793876E-10
  0.184842E-07  0.138744E-07  0.979468E-10
  0.114291E-07  0.962580E-08  0.815366E-10
  0.647631E-08  0.616600E-08  0.523203E-10
  0.336848E-08  0.365313E-08  0.267715E-10
  0.161043E-08  0.199885E-08  0.108246E-10
  0.708033E-09  0.100669E-08  0.320510E-11
  0.286015E-09  0.464731E-09  0.459861E-12
  0.105928E-09  0.195808E-09 -0.184725E-12
  0.358573E-10  0.749875E-10 -0.188146E-12
  0.450438E-10 -0.121828E-09  0.647086E-12
  0.137417E-09 -0.325764E-09  0.131193E-11
  0.381939E-09 -0.789543E-09  0.189568E-11
  0.968496E-09 -0.173717E-08  0.853552E-12
  0.224213E-08 -0.347540E-08 -0.546788E-11
  0.473866E-08 -0.633362E-08 -0.226542E-10
  0.913573E-08 -0.105349E-07 -0.549753E-10
  0.160477E-07 -0.160201E-07 -0.983899E-10
  0.256586E-07 -0.222808E-07 -0.134691E-09
  0.373456E-07 -0.282722E-07 -0.133950E-09
  0.495992E-07 -0.324853E-07 -0.747348E-10
  0.604800E-07 -0.332428E-07  0.274203E-10
  0.684803E-07 -0.292393E-07  0.117965E-09
  0.731930E-07 -0.201841E-07  0.134220E-09
  0.751966E-07 -0.722009E-08  0.590607E-10
  0.751966E-07  0.722009E-08 -0.590607E-10
  0.731930E-07  0.201841E-07 -0.134220E-09
  0.684803E-07  0.292393E-07 -0.117965E-09
  0.604800E-07  0.332428E-07 -0.274203E-10
  0.495992E-07  0.324853E-07  0.747348E-10
  0.373456E-07  0.282722E-07  0.133950E-09
  0.256586E-07  0.222808E-07  0.134691E-09
  0.160477E-07  0.160201E-07  0.983899E-10
  0.913573E-08  0.105349E-07  0.549753E-10
  0.473866E-08  0.633362E-08  0.226542E-10
  0.224213E-08  0.347540E-08  0.546788E-11
  0.968496E-09  0.173717E-08 -0.853552E-12
  0.381939E-09  0.789543E-09 -0.189568E-11
  0.137417E-09  0.325764E-09 -0.131193E-11
  0.450438E-10  0.121828E-09 -0.647086E-12
  0.479399E-10 -0.178124E-09  0.139389E-11
  0.152571E-09 -0.489409E-09  0.328806E-11
  0.439535E-09 -0.121413E-08  0.646315E-11
  0.114664E-08 -0.271796E-08  0.999359E-11
  0.270908E-08 -0.548807E-08  0.101370E-10
  0.579542E-08 -0.999518E-08 -0.493459E-12
  0.112194E-07 -0.164294E-07 -0.301859E-10
  0.196410E-07 -0.244010E-07 -0.800404E-10
  0.310782E-07 -0.327810E-07 -0.133990E-09
  0.444733E-07 -0.398330E-07 -0.159081E-09
  0.577244E-07 -0.436271E-07 -0.123781E-09
  0.684457E-07 -0.425808E-07 -0.337156E-10
  0.751755E-07 -0.359399E-07  0.614537E-10
  0.781585E-07 -0.240681E-07  0.957594E-10
  0.789411E-07 -0.847262E-08  0.446496E-10
  0.789411E-07  0.847262E-08 -0.446496E-10
  0.781585E-07  0.240681E-07 -0.957594E-10
  0.751755E-07  0.359399E-07 -0.614537E-10
  0.684457E-07  0.425808E-07  0.337156E-10
  0.577244E-07  0.436271E-07  0.123781E-09
  0.444733E-07  0.398330E-07  0.159081E-09
  0.310782E-07  0.327810E-07  0.133990E-09
  0.196410E-07  0.244010E-07  0.800404E-10
  0.112194E-07  0.164294E-07  0.301859E-10
  0.579542E-08  0.999518E-08  0.493459E-12
  0.270908E-08  0.548807E-08 -0.101370E-10
  0.114664E-08  0.271796E-08 -0.999359E-11
  0.439535E-09  0.121413E-08 -0.646315E-11
  0.152571E-09  0.489409E-09 -0.328806E-11
  0.479399E-10  0.178124E-09 -0.139389E-11
  0.424317E-10 -0.236213E-09  0.229451E-11
  0.143452E-09 -0.669327E-09  0.579691E-11
  0.433159E-09 -0.170337E-08  0.126239E-10
  0.117022E-08 -0.388532E-08  0.232754E-10
  0.283226E-08 -0.792952E-08  0.351135E-10
  0.614645E-08 -0.144625E-07  0.401546E-10
  0.119652E-07 -0.235608E-07  0.262695E-10
  0.208945E-07 -0.342861E-07 -0.148809E-10
  0.327329E-07 -0.445933E-07 -0.750903E-10
  0.460359E-07 -0.518578E-07 -0.124548E-09
  0.582924E-07 -0.538520E-07 -0.125677E-09
  0.669506E-07 -0.496023E-07 -0.704135E-10
  0.708645E-07 -0.396093E-07  0.687673E-11
  0.710860E-07 -0.253799E-07  0.482877E-10
  0.701491E-07 -0.871713E-08  0.266802E-10
  0.701491E-07  0.871713E-08 -0.266802E-10
  0.710860E-07  0.253799E-07 -0.482877E-10
  0.708645E-07  0.396093E-07 -0.687673E-11
  0.669506E-07  0.496023E-07  0.704135E-10
  0.582924E-07  0.538520E-07  0.125677E-09
  0.460359E-07  0.518578E-07  0.124548E-09
  0.327329E-07  0.445933E-07  0.750903E-10
  0.208945E-07  0.342861E-07  0.148809E-10
  0.119652E-07  0.235608E-07 -0.262695E-10
  0.614645E-08  0.144625E-07 -0.401546E-10
  0.283226E-08  0.792952E-08 -0.351135E-10
  0.117022E-08  0.388532E-08 -0.232754E-10
  0.433159E-09  0.170337E-08 -0.126239E-10
  0.143452E-09  0.669327E-09 -0.579691E-11
  0.424317E-10  0.236213E-09 -0.229451E-11
  0.302862E-10 -0.287216E-09  0.301829E-11
  0.112484E-09 -0.841581E-09  0.793022E-11
  0.362264E-09 -0.219940E-08  0.181826E-10
  0.102262E-08 -0.511380E-08  0.360384E-10
  0.254703E-08 -0.105558E-07  0.609245E-10
  0.562075E-08 -0.193110E-07  0.858095E-10
  0.110174E-07 -0.312674E-07  0.966326E-10
  0.192056E-07 -0.447578E-07  0.779596E-10
  0.297909E-07 -0.565864E-07  0.275651E-10
  0.411410E-07 -0.631150E-07 -0.339951E-10
  0.506830E-07 -0.619861E-07 -0.700597E-10
  0.560553E-07 -0.533395E-07 -0.604188E-10
  0.565919E-07 -0.395700E-07 -0.190656E-10
  0.540087E-07 -0.237390E-07  0.132009E-10
  0.514765E-07 -0.783418E-08  0.109356E-10
  0.514765E-07  0.783418E-08 -0.109356E-10
  0.540087E-07  0.237390E-07 -0.132009E-10
  0.565919E-07  0.395700E-07  0.190656E-10
  0.560553E-07  0.533395E-07  0.604188E-10
  0.506830E-07  0.619861E-07  0.700597E-10
  0.411410E-07  0.631150E-07  0.339951E-10
  0.297909E-07  0.565864E-07 -0.275651E-10
  0.192056E-07  0.447578E-07 -0.779596E-10
  0.110174E-07  0.312674E-07 -0.966326E-10
  0.562075E-08  0.193110E-07 -0.858095E-10
  0.254703E-08  0.105558E-07 -0.609245E-10
  0.102262E-08  0.511380E-08 -0.360384E-10
  0.362264E-09  0.219940E-08 -0.181826E-10
  0.112484E-09  0.841581E-09 -0.793022E-11
  0.302862E-10  0.287216E-09 -0.301829E-11
  0.165478E-10 -0.324827E-09  0.314934E-11
  0.719275E-10 -0.984010E-09  0.847702E-11
  0.253085E-09 -0.263717E-08  0.200213E-10
  0.753677E-09 -0.624116E-08  0.412215E-10
  0.193921E-08 -0.130214E-07  0.734167E-10
  0.435872E-08 -0.239108E-07  0.111741E-09
  0.860991E-08 -0.385744E-07  0.143080E-09
  0.149912E-07 -0.545519E-07  0.148852E-09
  0.230317E-07 -0.674338E-07  0.118762E-09
  0.312182E-07 -0.725756E-07  0.610661E-10
  0.373326E-07 -0.676311E-07  0.689473E-11
  0.395169E-07 -0.541297E-07 -0.192292E-10
  0.375520E-07 -0.366579E-07 -0.145622E-10
  0.333632E-07 -0.199836E-07 -0.526438E-12
  0.300833E-07 -0.617146E-08  0.260390E-11
  0.300833E-07  0.617146E-08 -0.260390E-11
  0.333632E-07  0.199836E-07  0.526438E-12
  0.375520E-07  0.366579E-07  0.145622E-10
  0.395169E-07  0.541297E-07  0.192292E-10
  0.373326E-07  0.676311E-07 -0.689473E-11
  0.312182E-07  0.725756E-07 -0.610661E-10
  0.230317E-07  0.674338E-07 -0.118762E-09
  0.149912E-07  0.545519E-07 -0.148852E-09
  0.860991E-08  0.385744E-07 -0.143080E-09
  0.435872E-08  0.239108E-07 -0.111741E-09
  0.193921E-08  0.130214E-07 -0.734167E-10
  0.753677E-09  0.624116E-08 -0.412215E-10
  0.253085E-09  0.263717E-08 -0.200213E-10
  0.719275E-10  0.984010E-09 -0.847702E-11
  0.165478E-10  0.324827E-09 -0.314934E-11
  0.633476E-11 -0.347540E-09  0.241785E-11
  0.358115E-10 -0.108262E-08  0.660266E-11
  0.140520E-09 -0.296051E-08  0.158615E-10
  0.442854E-09 -0.710401E-08  0.333350E-10
  0.117624E-08 -0.149467E-07  0.610031E-10
  0.268962E-08 -0.275388E-07  0.962309E-10
  0.535158E-08 -0.443467E-07  0.130082E-09
  0.931123E-08 -0.622292E-07  0.146158E-09
  0.141880E-07 -0.757477E-07  0.134241E-09
  0.189112E-07 -0.794322E-07  0.957476E-10
  0.219878E-07 -0.710176E-07  0.480457E-10
  0.222550E-07 -0.533107E-07  0.134334E-10
  0.197396E-07 -0.328423E-07 -0.563028E-12
  0.159566E-07 -0.158550E-07 -0.111192E-11
  0.132102E-07 -0.442133E-08  0.317998E-12
  0.132102E-07  0.442133E-08 -0.317998E-12
  0.159566E-07  0.158550E-07  0.111192E-11
  0.197396E-07  0.328423E-07  0.563028E-12
  0.222550E-07  0.533107E-07 -0.134334E-10
  0.219878E-07  0.710176E-07 -0.480457E-10
  0.189112E-07  0.794322E-07 -0.957476E-10
  0.141880E-07  0.757477E-07 -0.134241E-09
  0.931123E-08  0.622292E-07 -0.146158E-09
  0.535158E-08  0.443467E-07 -0.130082E-09
  0.268962E-08  0.275388E-07 -0.962309E-10
  0.117624E-08  0.149467E-07 -0.610031E-10
  0.442854E-09  0.710401E-08 -0.333350E-10
  0.140520E-09  0.296051E-08 -0.158615E-10
  0.358115E-10  0.108262E-08 -0.660266E-11
  0.633476E-11  0.347540E-09 -0.241785E-11
  0.131161E-11 -0.357604E-09  0.910144E-12
  0.101897E-10 -0.113219E-08  0.250241E-11
  0.437284E-10 -0.313137E-08  0.605893E-11
  0.143475E-09 -0.757162E-08  0.128643E-10
  0.389118E-09 -0.160047E-07  0.237964E-10
  0.899562E-09 -0.295468E-07  0.381095E-10
  0.179821E-08 -0.475476E-07  0.530923E-10
  0.312752E-08 -0.664710E-07  0.608969E-10
  0.474189E-08 -0.802853E-07  0.585657E-10
  0.625480E-08 -0.830524E-07  0.452240E-10
  0.714096E-08 -0.725730E-07  0.265093E-10
  0.700775E-08 -0.524172E-07  0.106353E-10
  0.589776E-08 -0.302628E-07  0.266568E-11
  0.438502E-08 -0.132089E-07  0.261995E-12
  0.331715E-08 -0.331667E-08  0.337351E-13
  0.331715E-08  0.331667E-08 -0.337351E-13
  0.438502E-08  0.132089E-07 -0.261995E-12
  0.589776E-08  0.302628E-07 -0.266568E-11
  0.700775E-08  0.524172E-07 -0.106353E-10
  0.714096E-08  0.725730E-07 -0.265093E-10
  0.625480E-08  0.830524E-07 -0.452240E-10
  0.474189E-08  0.802853E-07 -0.585657E-10
  0.312752E-08  0.664710E-07 -0.608969E-10
  0.179821E-08  0.475476E-07 -0.530923E-10
  0.899562E-09  0.295468E-07 -0.381095E-10
  0.389118E-09  0.160047E-07 -0.237964E-10
  0.143475E-09  0.757162E-08 -0.128643E-10
  0.437284E-10  0.313137E-08 -0.605893E-11
  0.101897E-10  0.113219E-08 -0.250241E-11
  0.131161E-11  0.357604E-09 -0.910144E-12
 -0.131161E-11 -0.357604E-09 -0.910144E-12
 -0.101897E-10 -0.113219E-08 -0.250241E-11
 -0.437284E-10 -0.313137E-08 -0.605893E-11
 -0.143475E-09 -0.757162E-08 -0.128643E-10
 -0.389118E-09 -0.160047E-07 -0.237964E-10
 -0.899562E-09 -0.295468E-07 -0.381095E-10
 -0.179821E-08 -0.475476E-07 -0.530923E-10
 -0.312752E-08 -0.664710E-07 -0.608969E-10
 -0.474189E-08 -0.802853E-07 -0.585657E-10
 -0.625480E-08 -0.830524E-07 -0.452240E-10
 -0.714096E-08 -0.725730E-07 -0.265093E-10
 -0.700775E-08 -0.524172E-07 -0.106353E-10
 -0.589776E-08 -0.302628E-07 -0.266568E-11
 -0.438502E-08 -0.132089E-07 -0.261995E-12
 -0.331715E-08 -0.331667E-08 -0.337351E-13
 -0.331715E-08  0.331667E-08  0.337351E-13
 -0.438502E-08  0.132089E-07  0.261995E-12
 -0.589776E-08  0.302628E-07  0.266568E-11
 -0.700775E-08  0.524172E-07  0.106353E-10
 -0.714096E-08  0.725730E-07  0.265093E-10
 -0.625480E-08  0.830524E-07  0.452240E-10
 -0.474189E-08  0.802853E-07  0.585657E-10
 -0.312752E-08  0.664710E-07  0.608969E-10
 -0.179821E-08  0.475476E-07  0.530923E-10
 -0.899562E-09  0.295468E-07  0.381095E-10
 -0.389118E-09  0.160047E-07  0.237964E-10
 -0.143475E-09  0.757162E-08  0.128643E-10
 -0.437284E-10  0.313137E-08  0.605893E-11
 -0.101897E-10  0.113219E-08  0.250241E-11
 -0.131161E-11  0.357604E-09  0.910144E-12
 -0.633476E-11 -0.347540E-09 -0.241785E-11
 -0.358115E-10 -0.108262E-08 -0.660266E-11
 -0.140520E-09 -0.296051E-08 -0.158615E-10
 -0.442854E-09 -0.710401E-08 -0.333350E-10
 -0.117624E-08 -0.149467E-07 -0.610031E-10
 -0.268962E-08 -0.275388E-07 -0.962309E-10
 -0.535158E-08 -0.443467E-07 -0.130082E-09
 -0.931123E-08 -0.622292E-07 -0.146158E-09
 -0.141880E-07 -0.757477E-07 -0.134241E-09
 -0.189112E-07 -0.794322E-07 -0.957476E-10
 -0.219878E-07 -0.710176E-07 -0.480457E-10
 -0.222550E-07 -0.533107E-07 -0.134334E-10
 -0.197396E-07 -0.328423E-07  0.563028E-12
 -0.159566E-07 -0.158550E-07  0.111192E-11
 -0.132102E-07 -0.442133E-08 -0.317998E-12
 -0.132102E-07  0.442133E-08  0.317998E-12
 -0.159566E-07  0.158550E-07 -0.111192E-11
 -0.197396E-07  0.328423E-07 -0.563028E-12
 -0.222550E-07  0.533107E-07  0.134334E-10
 -0.219878E-07  0.710176E-07  0.480457E-10
 -0.189112E-07  0.794322E-07  0.957476E-10
 -0.141880E-07  0.757477E-07  0.134241E-09
 -0.931123E-08  0.622292E-07  0.146158E-09
 -0.535158E-08  0.443467E-07  0.130082E-09
 -0.268962E-08  0.275388E-07  0.962309E-10
 -0.117624E-08  0.149467E-07  0.610031E-10
 -0.442854E-09  0.710401E-08  0.333350E-10
 -0.140520E-09  0.296051E-08  0.158615E-10
 -0.358115E-10  0.108262E-08  0.660266E-11
 -0.633476E-11  0.347540E-09  0.241785E-11
 -0.165478E-10 -0.324827E-09 -0.314934E-11
 -0.719275E-10 -0.984010E-09 -0.847702E-11
 -0.253085E-09 -0.263717E-08 -0.200213E-10
 -0.753677E-09 -0.624116E-08 -0.412215E-10
 -0.193921E-08 -0.130214E-07 -0.734167E-10
 -0.435872E-08 -0.239108E-07 -0.111741E-09
 -0.860991E-08 -0.385744E-07 -0.143080E-09
 -0.149912E-07 -0.545519E-07 -0.148852E-09
 -0.230317E-07 -0.674338E-07 -0.118762E-09
 -0.312182E-07 -0.725756E-07 -0.610661E-10
 -0.373326E-07 -0.676311E-07 -0.689473E-11
 -0.395169E-07 -0.541297E-07  0.192292E-10
 -0.375520E-07 -0.366579E-07  0.145622E-10
 -0.333632E-07 -0.199836E-07  0.526438E-12
 -0.300833E-07 -0.617146E-08 -0.260390E-11
 -0.300833E-07  0.617146E-08  0.260390E-11
 -0.333632E-07  0.199836E-07 -0.526438E-12
 -0.375520E-07  0.366579E-07 -0.145622E-10
 -0.395169E-07  0.541297E-07 -0.192292E-10
 -0.373326E-07  0.676311E-07  0.689473E-11
 -0.312182E-07  0.725756E-07  0.610661E-10
 -0.230317E-07  0.674338E-07  0.118762E-09
 -0.149912E-07  0.545519E-07  0.148852E-09
 -0.860991E-08  0.385744E-07  0.143080E-09
 -0.435872E-08  0.239108E-07  0.111741E-09
 -0.193921E-08  0.130214E-07  0.734167E-10
 -0.753677E-09  0.624116E-08  0.412215E-10
 -0.253085E-09  0.263717E-08  0.200213E-10
 -0.719275E-10  0.984010E-09  0.847702E-11
 -0.165478E-10  0.324827E-09  0.314934E-11
 -0.302862E-10 -0.287216E-09 -0.301829E-11
 -0.112484E-09 -0.841581E-09 -0.793022E-11
 -0.362264E-09 -0.219940E-08 -0.181826E-10
 -0.102262E-08 -0.511380E-08 -0.360384E-10
 -0.254703E-08 -0.105558E-07 -0.609245E-10
 -0.562075E-08 -0.193110E-07 -0.858095E-10
 -0.110174E-07 -0.312674E-07 -0.966326E-10
 -0.192056E-07 -0.447578E-07 -0.779596E-10
 -0.297909E-07 -0.565864E-07 -0.275651E-10
 -0.411410E-07 -0.631150E-07  0.339951E-10
 -0.506830E-07 -0.619861E-07  0.700597E-10
 -0.560553E-07 -0.533395E-07  0.604188E-10
 -0.565919E-07 -0.395700E-07  0.190656E-10
 -0.540087E-07 -0.237390E-07 -0.132009E-10
 -0.514765E-07 -0.783418E-08 -0.109356E-10
 -0.514765E-07  0.783418E-08  0.109356E-10
 -0.540087E-07  0.237390E-07  0.132009E-10
 -0.565919E-07  0.395700E-07 -0.190656E-10
 -0.560553E-07  0.533395E-07 -0.604188E-10
 -0.506830E-07  0.619861E-07 -0.700597E-10
 -0.411410E-07  0.631150E-07 -0.339951E-10
 -0.297909E-07  0.565864E-07  0.275651E-10
 -0.192056E-07  0.447578E-07  0.779596E-10
 -0.110174E-07  0.312674E-07  0.966326E-10
 -0.562075E-08  0.193110E-07  0.858095E-10
 -0.254703E-08  0.105558E-07  0.609245E-10
 -0.102262E-08  0.511380E-08  0.360384E-10
 -0.362264E-09  0.219940E-08  0.181826E-10
 -0.112484E-09  0.841581E-09  0.793022E-11
 -0.302862E-10  0.287216E-09  0.301829E-11
 -0.424317E-10 -0.236213E-09 -0.229451E-11
 -0.143452E-09 -0.669327E-09 -0.579691E-11
 -0.433159E-09 -0.170337E-08 -0.126239E-10
 -0.117022E-08 -0.388532E-08 -0.232754E-10
 -0.283226E-08 -0.792952E-08 -0.351135E-10
 -0.614645E-08 -0.144625E-07 -0.401546E-10
 -0.119652E-07 -0.235608E-07 -0.262695E-10
 -0.208945E-07 -0.342861E-07  0.148809E-10
 -0.327329E-07 -0.445933E-07  0.750903E-10
 -0.460359E-07 -0.518578E-07  0.124548E-09
 -0.582924E-07 -0.538520E-07  0.125677E-09
 -0.669506E-07 -0.496023E-07  0.704135E-10
 -0.708645E-07 -0.396093E-07 -0.687673E-11
 -0.710860E-07 -0.253799E-07 -0.482877E-10
 -0.701491E-07 -0.871713E-08 -0.266802E-10
 -0.701491E-07  0.871713E-08  0.266802E-10
 -0.710860E-07  0.253799E-07  0.482877E-10
 -0.708645E-07  0.396093E-07  0.687673E-11
 -0.669506E-07  0.496023E-07 -0.704135E-10
 -0.582924E-07  0.538520E-07 -0.125677E-09
 -0.460359E-07  0.518578E-07 -0.124548E-09
 -0.327329E-07  0.445933E-07 -0.750903E-10
 -0.208945E-07  0.342861E-07 -0.148809E-10
 -0.119652E-07  0.235608E-07  0.262695E-10
 -0.614645E-08  0.144625E-07  0.401546E-10
 -0.283226E-08  0.792952E-08  0.351135E-10
 -0.117022E-08  0.388532E-08  0.232754E-10
 -0.433159E-09  0.170337E-08  0.126239E-10
 -0.143452E-09  0.669327E-09  0.579691E-11
 -0.424317E-10  0.236213E-09  0.229451E-11
 -0.479399E-10 -0.178124E-09 -0.139389E-11
 -0.152571E-09 -0.489409E-09 -0.328806E-11
 -0.439535E-09 -0.121413E-08 -0.646315E-11
 -0.114664E-08 -0.271796E-08 -0.999359E-11
 -0.270908E-08 -0.548807E-08 -0.101370E-10
 -0.579542E-08 -0.999518E-08  0.493459E-12
 -0.112194E-07 -0.164294E-07  0.301859E-10
 -0.196410E-07 -0.244010E-07  0.800404E-10
 -0.310782E-07 -0.327810E-07  0.133990E-09
 -0.444733E-07 -0.398330E-07  0.159081E-09
 -0.577244E-07 -0.436271E-07  0.123781E-09
 -0.684457E-07 -0.425808E-07  0.337156E-10
 -0.751755E-07 -0.359399E-07 -0.614537E-10
 -0.781585E-07 -0.240681E-07 -0.957594E-10
 -0.789411E-07 -0.847262E-08 -0.446496E-10
 -0.789411E-07  0.847262E-08  0.446496E-10
 -0.781585E-07  0.240681E-07  0.957594E-10
 -0.751755E-07  0.359399E-07  0.614537E-10
 -0.684457E-07  0.425808E-07 -0.337156E-10
 -0.577244E-07  0.436271E-07 -0.123781E-09
 -0.444733E-07  0.398330E-07 -0.159081E-09
 -0.310782E-07  0.327810E-07 -0.133990E-09
 -0.196410E-07  0.244010E-07 -0.800404E-10
 -0.112194E-07  0.164294E-07 -0.301859E-10
 -0.579542E-08  0.999518E-08 -0.493459E-12
 -0.270908E-08  0.548807E-08  0.101370E-10
 -0.114664E-08  0.271796E-08  0.999359E-11
 -0.439535E-09  0.121413E-08  0.646315E-11
 -0.152571E-09  0.489409E-09  0.328806E-11
 -0.479399E-10  0.178124E-09  0.139389E-11
 -0.450438E-10 -0.121828E-09 -0.647086E-12
 -0.137417E-09 -0.325764E-09 -0.131193E-11
 -0.381939E-09 -0.789543E-09 -0.189568E-11
 -0.968496E-09 -0.173717E-08 -0.853552E-12
 -0.224213E-08 -0.347540E-08  0.546788E-11
 -0.473866E-08 -0.633362E-08  0.226542E-10
 -0.913573E-08 -0.105349E-07  0.549753E-10
 -0.160477E-07 -0.160201E-07  0.983899E-10
 -0.256586E-07 -0.222808E-07  0.134691E-09
 -0.373456E-07 -0.282722E-07  0.133950E-09
 -0.495992E-07 -0.324853E-07  0.747348E-10
 -0.604800E-07 -0.332428E-07 -0.274203E-10
 -0.684803E-07 -0.292393E-07 -0.117965E-09
 -0.731930E-07 -0.201841E-07 -0.134220E-09
 -0.751966E-07 -0.722009E-08 -0.590607E-10
 -0.751966E-07  0.722009E-08  0.590607E-10
 -0.731930E-07  0.201841E-07  0.134220E-09
 -0.684803E-07  0.292393E-07  0.117965E-09
 -0.604800E-07  0.332428E-07  0.274203E-10
 -0.495992E-07  0.324853E-07 -0.747348E-10
 -0.373456E-07  0.282722E-07 -0.133950E-09
 -0.256586E-07  0.222808E-07 -0.134691E-09
 -0.160477E-07  0.160201E-07 -0.983899E-10
 -0.913573E-08  0.105349E-07 -0.549753E-10
 -0.473866E-08  0.633362E-08 -0.226542E-10
 -0.224213E-08  0.347540E-08 -0.546788E-11
 -0.968496E-09  0.173717E-08  0.853552E-12
 -0.381939E-09  0.789543E-09  0.189568E-11
 -0.137417E-09  0.325764E-09  0.131193E-11
 -0.450438E-10  0.121828E-09  0.647086E-12
 -0.358573E-10 -0.749875E-10 -0.188146E-12
 -0.105928E-09 -0.195808E-09 -0.184725E-12
 -0.286015E-09 -0.464731E-09  0.459861E-12
 -0.708033E-09 -0.100669E-08  0.320510E-11
 -0.161043E-08 -0.199885E-08  0.108246E-10
 -0.336848E-08 -0.365313E-08  0.267715E-10
 -0.647631E-08 -0.616600E-08  0.523203E-10
 -0.114291E-07 -0.962580E-08  0.815366E-10
 -0.184842E-07 -0.138744E-07  0.979468E-10
 -0.273779E-07 -0.183490E-07  0.793876E-10
 -0.371902E-07 -0.219943E-07  0.153683E-10
 -0.465485E-07 -0.233945E-07 -0.775826E-10
 -0.541434E-07 -0.212350E-07 -0.149013E-09
 -0.592274E-07 -0.149847E-07 -0.146808E-09
 -0.616919E-07 -0.542096E-08 -0.612048E-10
 -0.616919E-07  0.542096E-08  0.612048E-10
 -0.592274E-07  0.149847E-07  0.146808E-09
 -0.541434E-07  0.212350E-07  0.149013E-09
 -0.465485E-07  0.233945E-07  0.775826E-10
 -0.371902E-07  0.219943E-07 -0.153683E-10
 -0.273779E-07  0.183490E-07 -0.793876E-10
 -0.184842E-07  0.138744E-07 -0.979468E-10
 -0.114291E-07  0.962580E-08 -0.815366E-10
 -0.647631E-08  0.616600E-08 -0.523203E-10