<?xml version="1.0"?>
 <VTKFile type="ImageData" version="0.1" byte_order="LittleEndian">
   <ImageData WholeExtent="           0           9           0           9           0           0 " Origin="  -8.0000000000000000       -8.0000000000000000        0.0000000000000000      " Spacing="   1.7777777777777777        1.7777777777777777        0.0000000000000000      ">
   <Piece Extent="           0           9           0           9           0           0 ">
   <PointData Scalars="scalars">
   <DataArray Name="vectors" type="Float64" NumberOfComponents="3" Format="ascii">
  0.896155E-07 -0.634814E-07  0.000000E+00
  0.371883E-06 -0.159766E-07  0.000000E+00
 -0.372006E-05  0.178609E-05  0.000000E+00
  0.203082E-04 -0.211217E-04  0.000000E+00
  0.238768E-03 -0.549376E-04  0.000000E+00
  0.238768E-03  0.549376E-04  0.000000E+00
  0.203082E-04  0.211217E-04  0.000000E+00
 -0.372006E-05 -0.178609E-05  0.000000E+00
  0.371883E-06  0.159766E-07  0.000000E+00
  0.896155E-07  0.634814E-07  0.000000E+00
  0.259012E-05 -0.272352E-05  0.000000E+00
  0.243333E-04 -0.138982E-04  0.000000E+00
 -0.224871E-06  0.490662E-04  0.000000E+00
 -0.129684E-03 -0.314315E-03  0.000000E+00
  0.515192E-02 -0.313243E-02  0.000000E+00
  0.515192E-02  0.313243E-02  0.000000E+00
 -0.129684E-03  0.314315E-03  0.000000E+00
 -0.224871E-06 -0.490662E-04  0.000000E+00
  0.243333E-04  0.138982E-04  0.000000E+00
  0.259012E-05  0.272352E-05  0.000000E+00
  0.165102E-04 -0.306609E-04  0.000000E+00
  0.376646E-03 -0.410130E-03  0.000000E+00
  0.323353E-02 -0.185443E-03  0.000000E+00
  0.812502E-03  0.447534E-03  0.000000E+00
  0.301444E-01 -0.652835E-01  0.000000E+00
  0.301444E-01  0.652835E-01  0.000000E+00
  0.812502E-03 -0.447534E-03  0.000000E+00
  0.323353E-02  0.185443E-03  0.000000E+00
  0.376646E-03  0.410130E-03  0.000000E+00
  0.165102E-04  0.306609E-04  0.000000E+00
  0.975193E-05 -0.809152E-04  0.000000E+00
  0.378827E-03 -0.271600E-02  0.000000E+00
  0.361486E-01 -0.518468E-01  0.000000E+00
  0.800481E-01  0.185198E-01  0.000000E+00
  0.105619E+00 -0.133436E-02  0.000000E+00
  0.105619E+00  0.133436E-02  0.000000E+00
  0.800481E-01 -0.185198E-01  0.000000E+00
  0.361486E-01  0.518468E-01  0.000000E+00
  0.378827E-03  0.271600E-02  0.000000E+00
  0.975193E-05  0.809152E-04  0.000000E+00
 -0.192345E-04  0.626493E-05  0.000000E+00
 -0.105566E-02 -0.515484E-03  0.000000E+00
 -0.241966E-01 -0.232280E-01  0.000000E+00
  0.994738E-01 -0.255619E-01  0.000000E+00
 -0.647589E-01  0.506486E-01  0.000000E+00
 -0.647589E-01 -0.506486E-01  0.000000E+00
  0.994738E-01  0.255619E-01  0.000000E+00
 -0.241966E-01  0.232280E-01  0.000000E+00
 -0.105566E-02  0.515484E-03  0.000000E+00
 -0.192345E-04 -0.626493E-05  0.000000E+00
  0.192345E-04  0.626493E-05  0.000000E+00
  0.105566E-02 -0.515484E-03  0.000000E+00
  0.241966E-01 -0.232280E-01  0.000000E+00
 -0.994738E-01 -0.255619E-01  0.000000E+00
  0.647589E-01  0.506486E-01  0.000000E+00
  0.647589E-01 -0.506486E-01  0.000000E+00
 -0.994738E-01  0.255619E-01  0.000000E+00
  0.241966E-01  0.232280E-01  0.000000E+00
  0.105566E-02  0.515484E-03  0.000000E+00
  0.192345E-04 -0.626493E-05  0.000000E+00
 -0.975193E-05 -0.809152E-04  0.000000E+00
 -0.378827E-03 -0.271600E-02  0.000000E+00
 -0.361486E-01 -0.518468E-01  0.000000E+00
 -0.800481E-01  0.185198E-01  0.000000E+00
 -0.105619E+00 -0.133436E-02  0.000000E+00
 -0.105619E+00  0.133436E-02  0.000000E+00
 -0.800481E-01 -0.185198E-01  0.000000E+00
 -0.361486E-01  0.518468E-01  0.000000E+00
 -0.378827E-03  0.271600E-02  0.000000E+00
 -0.975193E-05  0.809152E-04  0.000000E+00
 -0.165102E-04 -0.306609E-04  0.000000E+00
 -0.376646E-03 -0.410130E-03  0.000000E+00
 -0.323353E-02 -0.185443E-03  0.000000E+00
 -0.812502E-03  0.447534E-03  0.000000E+00
 -0.301444E-01 -0.652835E-01  0.000000E+00
 -0.301444E-01  0.652835E-01  0.000000E+00
 -0.812502E-03 -0.447534E-03  0.000000E+00
 -0.323353E-02  0.185443E-03  0.000000E+00
 -0.376646E-03  0.410130E-03  0.000000E+00
 -0.165102E-04  0.306609E-04  0.000000E+00
 -0.259012E-05 -0.272352E-05  0.000000E+00
 -0.243333E-04 -0.138982E-04  0.000000E+00
  0.224871E-06  0.490662E-04  0.000000E+00
  0.129684E-03 -0.314315E-03  0.000000E+00
 -0.515192E-02 -0.313243E-02  0.000000E+00
 -0.515192E-02  0.313243E-02  0.000000E+00
  0.129684E-03  0.314315E-03  0.000000E+00
  0.224871E-06 -0.490662E-04  0.000000E+00
 -0.243333E-04  0.138982E-04  0.000000E+00
 -0.259012E-05  0.272352E-05  0.000000E+00
 -0.896155E-07 -0.634814E-07  0.000000E+00
 -0.371883E-06 -0.159766E-07  0.000000E+00
  0.372006E-05  0.178609E-05  0.000000E+00
 -0.203082E-04 -0.211217E-04  0.000000E+00
 -0.238768E-03 -0.549376E-04  0.000000E+00
 -0.238768E-03  0.549376E-04  0.000000E+00
 -0.203082E-04  0.211217E-04  0.000000E+00
  0.372006E-05 -0.178609E-05  0.000000E+00
 -0.371883E-06  0.159766E-07  0.000000E+00
 -0.896155E-07  0.634814E-07  0.000000E+00

    </DataArray>
    </PointData>
    <CellData Scalars="foo">
  0.109822E-06
  0.372226E-06
  0.412662E-05
  0.293010E-04
  0.245006E-03
  0.245006E-03
  0.293010E-04
  0.412662E-05
  0.372226E-06
  0.109822E-06
  0.375850E-05
  0.280227E-04
  0.490667E-04
  0.340017E-03
  0.602946E-02
  0.602946E-02
  0.340017E-03
  0.490667E-04
  0.280227E-04
  0.375850E-05
  0.348235E-04
  0.556839E-03
  0.323884E-02
  0.927602E-03
  0.719070E-01
  0.719070E-01
  0.927602E-03
  0.323884E-02
  0.556839E-03
  0.348235E-04
  0.815007E-04
  0.274230E-02
  0.632045E-01
  0.821625E-01
  0.105628E+00
  0.105628E+00
  0.821625E-01
  0.632045E-01
  0.274230E-02
  0.815007E-04
  0.202291E-04
  0.117480E-02
  0.335413E-01
  0.102706E+00
  0.822131E-01
  0.822131E-01
  0.102706E+00
  0.335413E-01
  0.117480E-02
  0.202291E-04
  0.202291E-04
  0.117480E-02
  0.335413E-01
  0.102706E+00
  0.822131E-01
  0.822131E-01
  0.102706E+00
  0.335413E-01
  0.117480E-02
  0.202291E-04
  0.815007E-04
  0.274230E-02
  0.632045E-01
  0.821625E-01
  0.105628E+00
  0.105628E+00
  0.821625E-01
  0.632045E-01
  0.274230E-02
  0.815007E-04
  0.348235E-04
  0.556839E-03
  0.323884E-02
  0.927602E-03
  0.719070E-01
  0.719070E-01
  0.927602E-03
  0.323884E-02
  0.556839E-03
  0.348235E-04
  0.375850E-05
  0.280227E-04
  0.490667E-04
  0.340017E-03
  0.602946E-02
  0.602946E-02
  0.340017E-03
  0.490667E-04
  0.280227E-04
  0.375850E-05
  0.109822E-06
  0.372226E-06
  0.412662E-05
  0.293010E-04
  0.245006E-03
  0.245006E-03
  0.293010E-04
  0.412662E-05
  0.372226E-06
  0.109822E-06
    </CellData>
    </Piece>
    </ImageData>
 </VTKFile>
