<?xml version="1.0"?>
 <VTKFile type="ImageData" version="0.1" byte_order="LittleEndian">
   <ImageData WholeExtent="           0          32           0          32           0          32 " Origin="  -8.0000000000000000       -8.0000000000000000       -8.0000000000000000      " Spacing="  0.50000000000000000       0.50000000000000000       0.50000000000000000      ">
   <Piece Extent="           0          32           0          32           0          32 ">
   <PointData Scalars="scalars">
   <DataArray Name="scalars" type="Float64" NumberOfComponents="1" Format="ascii">
  0.934030E-13
  0.269130E-12  0.707835E-12  0.170150E-11  0.374716E-11
  0.757336E-11  0.140704E-10  0.240818E-10  0.380542E-10
  0.556730E-10  0.756738E-10  0.960101E-10  0.114394E-09
  0.129005E-09  0.139011E-09  0.144590E-09  0.146401E-09
  0.144818E-09  0.139546E-09  0.129934E-09  0.115714E-09
  0.976002E-10  0.773309E-10  0.571877E-10  0.392802E-10
  0.249659E-10  0.146407E-10  0.790310E-11  0.391828E-11
  0.178122E-11  0.741190E-12  0.281654E-12  0.976188E-13
  0.259806E-12  0.752683E-12  0.199128E-11  0.482016E-11
  0.106975E-10  0.218004E-10  0.408764E-10  0.706662E-10
  0.112906E-09  0.167200E-09  0.230319E-09  0.296447E-09
  0.358524E-09  0.410215E-09  0.447581E-09  0.469573E-09
  0.476909E-09  0.470232E-09  0.449097E-09  0.412780E-09
  0.362103E-09  0.300701E-09  0.234712E-09  0.171192E-09
  0.116124E-09  0.729802E-10  0.423652E-10  0.226589E-10
  0.111416E-10  0.502617E-11  0.207700E-11  0.784626E-12
  0.270460E-12  0.659845E-12  0.192290E-11  0.512168E-11
  0.124902E-10  0.279298E-10  0.573752E-10  0.108488E-09
  0.189222E-09  0.305211E-09  0.456667E-09  0.636182E-09
  0.828835E-09  0.101507E-08  0.117559E-08  0.129605E-08
  0.136940E-08  0.139433E-08  0.137128E-08  0.130021E-08
  0.118237E-08  0.102425E-08  0.839519E-09  0.647059E-09
  0.466460E-09  0.313063E-09  0.194848E-09  0.112098E-09
  0.594514E-10  0.289998E-10  0.129843E-10  0.532598E-11
  0.199843E-11  0.684793E-12  0.153199E-11  0.449677E-11
  0.120673E-10  0.296458E-10  0.667870E-10  0.138209E-09
  0.263225E-09  0.462426E-09  0.751418E-09  0.113321E-08
  0.159245E-08  0.209458E-08  0.259124E-08  0.303064E-08
  0.336944E-08  0.358070E-08  0.365347E-08  0.358583E-08
  0.338032E-08  0.304760E-08  0.261340E-08  0.211970E-08
  0.161758E-08  0.115561E-08  0.769267E-09  0.475176E-09
  0.271389E-09  0.142893E-09  0.691934E-10  0.307521E-10
  0.125219E-10  0.466390E-11  0.158651E-11  0.325986E-11
  0.964497E-11  0.260841E-10  0.645679E-10  0.146493E-09
  0.305095E-09  0.584354E-09  0.103173E-08  0.168438E-08
  0.255258E-08  0.360697E-08  0.477540E-08  0.595141E-08
  0.701313E-08  0.784880E-08  0.837909E-08  0.856367E-08
  0.839194E-08  0.787513E-08  0.705254E-08  0.600109E-08
  0.483023E-08  0.366087E-08  0.260014E-08  0.172213E-08
  0.105865E-08  0.601587E-09  0.314974E-09  0.151558E-09
  0.668880E-10  0.270325E-10  0.999037E-11  0.337171E-11
  0.636706E-11  0.190042E-10  0.518272E-10  0.129277E-09
  0.295242E-09  0.618118E-09  0.118835E-08  0.210312E-08
  0.343825E-08  0.521614E-08  0.738288E-08  0.980268E-08
  0.122689E-07  0.145309E-07  0.163407E-07  0.175049E-07
  0.179135E-07  0.175338E-07  0.163983E-07  0.146142E-07
  0.123706E-07  0.991233E-08  0.748916E-08  0.530937E-08
  0.351222E-08  0.215600E-08  0.122228E-08  0.637597E-09
  0.305227E-09  0.133841E-09  0.536861E-10  0.196775E-10
  0.658351E-11  0.114385E-10  0.344696E-10  0.948485E-10
  0.238429E-09  0.547855E-09  0.115165E-08  0.221795E-08
  0.392306E-08  0.639763E-08  0.967153E-08  0.136438E-07
  0.180834E-07  0.226416E-07  0.268749E-07  0.303090E-07
  0.325434E-07  0.333334E-07  0.326005E-07  0.304203E-07
  0.270317E-07  0.228283E-07  0.182812E-07  0.138340E-07
  0.983864E-08  0.653113E-08  0.401928E-08  0.228011E-08
  0.118750E-08  0.566277E-09  0.246851E-09  0.982720E-10
  0.357055E-10  0.118339E-10  0.189350E-10  0.576773E-10
  0.160244E-09  0.406048E-09  0.938423E-09  0.197873E-08
  0.381042E-08  0.671622E-08  0.108792E-07  0.162977E-07
  0.227697E-07  0.299351E-07  0.372978E-07  0.442026E-07
  0.498774E-07  0.536103E-07  0.549384E-07  0.537079E-07
  0.500645E-07  0.444604E-07  0.375987E-07  0.302506E-07
  0.230743E-07  0.165691E-07  0.110999E-07  0.687792E-08
  0.391618E-08  0.204023E-08  0.970180E-09  0.420600E-09
  0.166161E-09  0.598116E-10  0.196170E-10  0.289564E-10
  0.892599E-10  0.250597E-09  0.640380E-09  0.148863E-08
  0.314688E-08  0.605155E-08  0.106032E-07  0.169899E-07
  0.250658E-07  0.344002E-07  0.444620E-07  0.546952E-07
  0.643617E-07  0.724275E-07  0.778029E-07  0.797289E-07
  0.779440E-07  0.726942E-07  0.647218E-07  0.551090E-07
  0.448967E-07  0.348300E-07  0.254625E-07  0.173235E-07
  0.108540E-07  0.621863E-08  0.324520E-08  0.153976E-08
  0.663904E-09  0.260184E-09  0.927220E-10  0.300636E-10
  0.410305E-10  0.128157E-09  0.363938E-09  0.938568E-09
  0.219554E-08  0.465389E-08  0.893418E-08  0.155412E-07
  0.245594E-07  0.354743E-07  0.473682E-07  0.594384E-07
  0.712935E-07  0.825301E-07  0.921354E-07  0.986793E-07
  0.101047E-06  0.988464E-07  0.924451E-07  0.829366E-07
  0.717541E-07  0.599359E-07  0.478936E-07  0.359948E-07
  0.250219E-07  0.159020E-07  0.918003E-08  0.480060E-08
  0.227248E-08  0.974152E-09  0.378489E-09  0.133426E-09
  0.427202E-10  0.540834E-10  0.171383E-09  0.492785E-09
  0.128365E-08  0.302419E-08  0.643323E-08  0.123388E-07
  0.213191E-07  0.332040E-07  0.467940E-07  0.602591E-07
  0.722612E-07  0.828444E-07  0.927548E-07  0.101720E-06
  0.108163E-06  0.110548E-06  0.108312E-06  0.101984E-06
  0.930758E-07  0.832021E-07  0.726968E-07  0.608068E-07
  0.474131E-07  0.337992E-07  0.218042E-07  0.126777E-07
  0.663834E-08  0.313267E-08  0.133408E-08  0.513484E-09
  0.178902E-09  0.565039E-10  0.666646E-10  0.214536E-09
  0.625074E-09  0.164586E-08  0.390866E-08  0.835435E-08
  0.160354E-07  0.275796E-07  0.424360E-07  0.584222E-07
  0.723163E-07  0.817311E-07  0.871192E-07  0.913884E-07
  0.963869E-07  0.100860E-06  0.102661E-06  0.100932E-06
  0.964772E-07  0.914334E-07  0.871702E-07  0.819522E-07
  0.728034E-07  0.591087E-07  0.431604E-07  0.281964E-07
  0.164760E-07  0.862420E-08  0.405236E-08  0.171296E-08
  0.652705E-09  0.224605E-09  0.699187E-10  0.773781E-10
  0.252960E-09  0.746943E-09  0.198845E-08  0.476240E-08
  0.102376E-07  0.196995E-07  0.338252E-07  0.516473E-07
  0.698864E-07  0.836626E-07  0.890332E-07  0.862238E-07
  0.805272E-07  0.777760E-07  0.782984E-07  0.789543E-07
  0.782437E-07  0.775685E-07  0.801098E-07  0.858104E-07
  0.889529E-07  0.840502E-07  0.706247E-07  0.524959E-07
  0.345728E-07  0.202421E-07  0.105728E-07  0.494175E-08
  0.207246E-08  0.781625E-09  0.265633E-09  0.814883E-10
  0.853256E-10  0.283093E-09  0.846364E-09  0.227621E-08
  0.549565E-08  0.118836E-07  0.229475E-07  0.394283E-07
  0.600041E-07  0.804191E-07  0.942786E-07  0.960805E-07
  0.852339E-07  0.680690E-07  0.545915E-07  0.493515E-07
  0.484870E-07  0.491480E-07  0.540015E-07  0.671237E-07
  0.843749E-07  0.957388E-07  0.945872E-07  0.812090E-07
  0.609662E-07  0.402941E-07  0.235821E-07  0.122775E-07
  0.570705E-08  0.237543E-08  0.887400E-09  0.298121E-09
  0.902150E-10  0.903242E-10  0.303300E-09  0.915867E-09
  0.248330E-08  0.603478E-08  0.131141E-07  0.254090E-07
  0.437277E-07  0.665039E-07  0.887758E-07  0.103063E-06
  0.102787E-06  0.867647E-07  0.613927E-07  0.379387E-07
  0.253592E-07  0.224694E-07  0.249865E-07  0.369789E-07
  0.600820E-07  0.856346E-07  0.102290E-06  0.103332E-06
  0.896133E-07  0.675554E-07  0.446845E-07  0.261140E-07
  0.135529E-07  0.627068E-08  0.259417E-08  0.961789E-09
  0.320151E-09  0.958212E-10  0.927459E-10  0.313699E-09
  0.952947E-09  0.259642E-08  0.633424E-08  0.138062E-07
  0.268078E-07  0.461927E-07  0.702664E-07  0.936821E-07
  0.108374E-06  0.107235E-06  0.889150E-07  0.600233E-07
  0.318609E-07  0.132352E-07  0.648753E-08  0.126394E-07
  0.307198E-07  0.585728E-07  0.876699E-07  0.106666E-06
  0.108627E-06  0.945491E-07  0.713697E-07  0.472017E-07
  0.275529E-07  0.142708E-07  0.658424E-08  0.271405E-08
  0.100173E-08  0.331634E-09  0.986121E-10  0.930537E-10
  0.315054E-09  0.957863E-09  0.261162E-08  0.637494E-08
  0.139011E-07  0.270008E-07  0.465344E-07  0.707887E-07
  0.943643E-07  0.109112E-06  0.107858E-06  0.892442E-07
  0.599444E-07  0.313095E-07  0.118987E-07  0.334652E-08
  0.112215E-07  0.301279E-07  0.584648E-07  0.879783E-07
  0.107278E-06  0.109363E-06  0.952362E-07  0.718997E-07
  0.475510E-07  0.277518E-07  0.143696E-07  0.662728E-08
  0.273049E-08  0.100724E-08  0.333242E-09  0.990191E-10
  0.913421E-10  0.307551E-09  0.930861E-09  0.252883E-08
  0.615512E-08  0.133921E-07  0.259706E-07  0.447160E-07
  0.680071E-07  0.907204E-07  0.105132E-06  0.104441E-06
  0.873922E-07  0.604606E-07  0.349576E-07  0.202067E-07
  0.164667E-07  0.197040E-07  0.338452E-07  0.590409E-07
  0.861909E-07  0.103907E-06  0.105395E-06  0.915719E-07
  0.690815E-07  0.456955E-07  0.266932E-07  0.138428E-07
  0.639799E-08  0.264338E-08  0.978535E-09  0.325157E-09
  0.971346E-10  0.872487E-10  0.290577E-09  0.871601E-09
  0.235060E-08  0.568817E-08  0.123213E-07  0.238207E-07
  0.409479E-07  0.622878E-07  0.833217E-07  0.972513E-07
  0.981735E-07  0.852747E-07  0.649750E-07  0.480632E-07
  0.407425E-07  0.393446E-07  0.404314E-07  0.472591E-07
  0.638170E-07  0.842724E-07  0.977597E-07  0.975444E-07
  0.841321E-07  0.632858E-07  0.418497E-07  0.244836E-07
  0.127343E-07  0.591083E-08  0.245578E-08  0.915476E-09
  0.306830E-09  0.926165E-10  0.803118E-10  0.263651E-09
  0.781393E-09  0.208672E-08  0.501052E-08  0.107911E-07
  0.207866E-07  0.356912E-07  0.544115E-07  0.733289E-07
  0.870426E-07  0.910885E-07  0.854859E-07  0.760903E-07
  0.702258E-07  0.691683E-07  0.693786E-07  0.690240E-07
  0.698305E-07  0.754326E-07  0.848760E-07  0.909003E-07
  0.874012E-07  0.740888E-07  0.553038E-07  0.364840E-07
  0.213653E-07  0.111508E-07  0.520441E-08  0.217845E-08
  0.819767E-09  0.277920E-09  0.850453E-10  0.704806E-10
  0.227727E-09  0.665908E-09  0.175880E-08  0.418711E-08
  0.896409E-08  0.172155E-07  0.295824E-07  0.453769E-07
  0.620636E-07  0.758994E-07  0.840481E-07  0.870041E-07
  0.885114E-07  0.914795E-07  0.949186E-07  0.964018E-07
  0.949259E-07  0.914372E-07  0.883735E-07  0.868815E-07
  0.841618E-07  0.763552E-07  0.627725E-07  0.461483E-07
  0.302483E-07  0.176956E-07  0.926094E-08  0.434697E-08
  0.183453E-08  0.697679E-09  0.239589E-09  0.744363E-10
  0.584056E-10  0.185730E-09  0.535759E-09  0.139943E-08
  0.330385E-08  0.703632E-08  0.134943E-07  0.232724E-07
  0.360875E-07  0.504507E-07  0.641348E-07  0.755376E-07
  0.848765E-07  0.934927E-07  0.101593E-06  0.107619E-06
  0.109877E-06  0.107735E-06  0.101788E-06  0.937168E-07
  0.851360E-07  0.759104E-07  0.646712E-07  0.510992E-07
  0.367310E-07  0.238062E-07  0.138721E-07  0.726797E-08
  0.342824E-08  0.145839E-08  0.560563E-09  0.195031E-09
  0.615247E-10  0.453505E-10  0.142059E-09  0.404508E-09
  0.104559E-08  0.244992E-08  0.519673E-08  0.997017E-08
  0.173014E-07  0.272097E-07  0.389973E-07  0.515067E-07
  0.638079E-07  0.756277E-07  0.868231E-07  0.965092E-07
  0.103179E-06  0.105601E-06  0.103341E-06  0.968056E-07
  0.872078E-07  0.760664E-07  0.642991E-07  0.520509E-07
  0.395577E-07  0.277207E-07  0.177072E-07  0.102510E-07
  0.536702E-08  0.254096E-08  0.108873E-08  0.422698E-09
  0.148911E-09  0.476618E-10  0.328012E-10  0.101341E-09
  0.285138E-09  0.730008E-09  0.169917E-08  0.359341E-08
  0.690468E-08  0.120692E-07  0.192562E-07  0.282314E-07
  0.384441E-07  0.492920E-07  0.602429E-07  0.706021E-07
  0.792953E-07  0.851172E-07  0.872083E-07  0.852704E-07
  0.795824E-07  0.709863E-07  0.606833E-07  0.497588E-07
  0.389140E-07  0.286738E-07  0.196350E-07  0.123585E-07
  0.710051E-08  0.371077E-08  0.176158E-08  0.759559E-09
  0.297629E-09  0.106068E-09  0.344057E-10  0.220019E-10
  0.671346E-10  0.186846E-09  0.474187E-09  0.109710E-08
  0.231414E-08  0.445357E-08  0.783544E-08  0.126523E-07
  0.188731E-07  0.262410E-07  0.343468E-07  0.426595E-07
  0.504735E-07  0.569206E-07  0.611754E-07  0.626932E-07
  0.612904E-07  0.571390E-07  0.507708E-07  0.430035E-07
  0.347066E-07  0.265899E-07  0.191868E-07  0.129103E-07
  0.802688E-08  0.458076E-08  0.238957E-08  0.113703E-08
  0.493085E-09  0.194854E-09  0.701798E-10  0.230425E-10
  0.136406E-10  0.411584E-10  0.113414E-09  0.285483E-09
  0.656667E-09  0.138114E-08  0.265949E-08  0.469947E-08
  0.765021E-08  0.115383E-07  0.162387E-07  0.214824E-07
  0.268711E-07  0.318914E-07  0.359797E-07  0.386487E-07
  0.395953E-07  0.387208E-07  0.361181E-07  0.320830E-07
  0.270959E-07  0.217182E-07  0.164647E-07  0.117374E-07
  0.781031E-08  0.481610E-08  0.273599E-08  0.142616E-08
  0.680432E-09  0.296735E-09  0.118198E-09  0.429873E-10
  0.142699E-10  0.779578E-11  0.232874E-10  0.635822E-10
  0.158795E-09  0.363071E-09  0.760788E-09  0.146331E-08
  0.258970E-08  0.423199E-08  0.641646E-08  0.907763E-08
  0.120530E-07  0.150941E-07  0.178955E-07  0.201471E-07
  0.216013E-07  0.221138E-07  0.216398E-07  0.202222E-07
  0.180016E-07  0.152209E-07  0.121876E-07  0.920707E-08
  0.652984E-08  0.432233E-08  0.265490E-08  0.150577E-08
  0.785686E-09  0.376201E-09  0.165023E-09  0.662410E-10
  0.243098E-10  0.815024E-11  0.409776E-11  0.121318E-10
  0.328415E-10  0.813927E-10  0.184904E-09  0.385576E-09
  0.739322E-09  0.130656E-08  0.213482E-08  0.323798E-08
  0.458049E-08  0.607326E-08  0.758294E-08  0.895381E-08
  0.100392E-07  0.107316E-07  0.109738E-07  0.107494E-07
  0.100746E-07  0.900505E-08  0.764580E-08  0.614134E-08
  0.464674E-08  0.329627E-08  0.218125E-08  0.134000E-08
  0.761060E-09  0.398315E-09  0.191631E-09  0.845938E-10
  0.342149E-10  0.126633E-10  0.428341E-11  0.197756E-11
  0.580684E-11  0.155957E-10  0.383592E-10  0.865421E-10
  0.179382E-09  0.342230E-09  0.602301E-09  0.980576E-09
  0.148192E-08  0.208748E-08  0.275326E-08  0.341632E-08
  0.400757E-08  0.446716E-08  0.475581E-08  0.485575E-08
  0.476295E-08  0.448177E-08  0.402948E-08  0.344408E-08
  0.278414E-08  0.211808E-08  0.150915E-08  0.100239E-08
  0.618061E-09  0.352496E-09  0.185412E-09  0.897367E-10
  0.398861E-10  0.162545E-10  0.606347E-11  0.206786E-11
  0.874476E-12  0.254951E-11  0.679520E-11  0.165904E-10
  0.371565E-10  0.764773E-10  0.144932E-09  0.253429E-09
  0.409937E-09  0.615315E-09  0.860253E-09  0.112515E-08
  0.138366E-08  0.160888E-08  0.177984E-08  0.188502E-08
  0.192096E-08  0.188753E-08  0.178518E-08  0.161726E-08
  0.139472E-08  0.113784E-08  0.873123E-09  0.626942E-09
  0.419346E-09  0.260270E-09  0.149410E-09  0.791190E-10
  0.385624E-10  0.172658E-10  0.708826E-11  0.266440E-11
  0.915192E-12  0.353764E-12  0.102478E-11  0.271205E-11
  0.657280E-11  0.146110E-10  0.298398E-10  0.560991E-10
  0.972868E-10  0.156001E-09  0.231971E-09  0.321017E-09
  0.415273E-09  0.504888E-09  0.580650E-09  0.636344E-09
  0.669635E-09  0.680796E-09  0.670409E-09  0.638088E-09
  0.583547E-09  0.508909E-09  0.420054E-09  0.325986E-09
  0.236537E-09  0.159740E-09  0.100028E-09  0.579044E-10
  0.309105E-10  0.151837E-10  0.684939E-11  0.283273E-11
  0.107238E-11  0.370730E-12  0.130638E-12  0.376293E-12
  0.989971E-12  0.238198E-11  0.525430E-11  0.106431E-10
  0.198323E-10  0.340648E-10  0.540576E-10  0.794746E-10
  0.108629E-09  0.138671E-09  0.166301E-09  0.188746E-09
  0.204522E-09  0.213549E-09  0.216487E-09  0.213762E-09
  0.205041E-09  0.189672E-09  0.167652E-09  0.140336E-09
  0.110402E-09  0.811311E-10  0.554296E-10  0.350791E-10
  0.205047E-10  0.110442E-10  0.546992E-11  0.248663E-11
  0.103586E-11  0.394481E-12  0.137155E-12  0.439736E-13
  0.126050E-12  0.329723E-12  0.788151E-12  0.172566E-11
  0.346613E-11  0.639911E-11  0.108775E-10  0.170629E-10
  0.247662E-10  0.333776E-10  0.419645E-10  0.495339E-10
  0.553558E-10  0.591809E-10  0.612154E-10  0.618446E-10
  0.612691E-10  0.593246E-10  0.556325E-10  0.499577E-10
  0.425037E-10  0.339640E-10  0.253221E-10  0.175281E-10
  0.112240E-10  0.663024E-11  0.360467E-11  0.180048E-11
  0.824627E-12  0.345784E-12  0.132443E-12  0.462682E-13
  0.446955E-12  0.128081E-11  0.334666E-11  0.799029E-11
  0.174600E-10  0.349840E-10  0.643979E-10  0.109132E-09
  0.170657E-09  0.246957E-09  0.331908E-09  0.416299E-09
  0.490426E-09  0.547236E-09  0.584412E-09  0.604111E-09
  0.610275E-09  0.604965E-09  0.586547E-09  0.551122E-09
  0.496133E-09  0.423325E-09  0.339342E-09  0.253828E-09
  0.176267E-09  0.113206E-09  0.670411E-10  0.365201E-10
  0.182608E-10  0.836500E-11  0.350399E-11  0.134004E-11
  0.466942E-12  0.123643E-11  0.355875E-11  0.935072E-11
  0.224641E-10  0.494303E-10  0.998219E-10  0.185382E-09
  0.317304E-09  0.501806E-09  0.735444E-09  0.100261E-08
  0.127737E-08  0.152989E-08  0.173514E-08  0.187959E-08
  0.196237E-08  0.198945E-08  0.196475E-08  0.188541E-08
  0.174553E-08  0.154494E-08  0.129572E-08  0.102191E-08
  0.753212E-09  0.516279E-09  0.327798E-09  0.192181E-09
  0.103766E-09  0.514810E-10  0.234199E-10  0.974991E-11
  0.370855E-11  0.128636E-11  0.311955E-11  0.902985E-11
  0.238703E-10  0.577197E-10  0.127913E-09  0.260301E-09
  0.487436E-09  0.841871E-09  0.134470E-08  0.199270E-08
  0.275025E-08  0.355143E-08  0.431403E-08  0.496058E-08
  0.543769E-08  0.572379E-08  0.581985E-08  0.573051E-08
  0.545336E-08  0.498739E-08  0.435174E-08  0.359650E-08
  0.279705E-08  0.203547E-08  0.137939E-08  0.866963E-09
  0.503663E-09  0.269695E-09  0.132782E-09  0.599796E-10
  0.248086E-10  0.937801E-11  0.323482E-11  0.719417E-11
  0.209567E-10  0.557650E-10  0.135778E-09  0.303040E-09
  0.621140E-09  0.117169E-08  0.203904E-08  0.328316E-08
  0.490830E-08  0.684114E-08  0.893073E-08  0.109743E-07
  0.127621E-07  0.141259E-07  0.149683E-07  0.152562E-07
  0.149869E-07  0.141668E-07  0.128284E-07  0.110638E-07
  0.903487E-08  0.694737E-08  0.500440E-08  0.336069E-08
  0.209497E-08  0.120780E-08  0.642006E-09  0.313825E-09
  0.140762E-09  0.578214E-10  0.217136E-10  0.744210E-11
  0.151890E-10  0.445652E-10  0.119457E-09  0.292966E-09
  0.658405E-09  0.135829E-08  0.257753E-08  0.451060E-08
  0.730261E-08  0.109815E-07  0.154090E-07  0.202734E-07
  0.251300E-07  0.294818E-07  0.328836E-07  0.350297E-07
  0.357727E-07  0.350772E-07  0.329834E-07  0.296357E-07
  0.253292E-07  0.204981E-07  0.156338E-07  0.111828E-07
  0.746425E-08  0.462704E-08  0.265268E-08  0.140166E-08
  0.680775E-09  0.303263E-09  0.123682E-09  0.461083E-10
  0.156895E-10  0.294126E-10  0.870110E-10  0.235115E-09
  0.580965E-09  0.131438E-08  0.272665E-08  0.519635E-08
  0.912151E-08  0.148012E-07  0.223049E-07  0.313848E-07
  0.414614E-07  0.516741E-07  0.609967E-07  0.684235E-07
  0.731832E-07  0.748479E-07  0.732925E-07  0.686449E-07
  0.613237E-07  0.520814E-07  0.419082E-07  0.318244E-07
  0.226955E-07  0.151146E-07  0.934759E-08  0.534254E-08
  0.281111E-08  0.135791E-08  0.600951E-09  0.243279E-09
  0.899738E-10  0.303655E-10  0.523408E-10  0.156299E-09
  0.426093E-09  0.106119E-08  0.241635E-08  0.503567E-08
  0.962021E-08  0.168916E-07  0.273668E-07  0.411365E-07
  0.577539E-07  0.762435E-07  0.951593E-07  0.112676E-06
  0.126852E-06  0.136057E-06  0.139303E-06  0.136278E-06
  0.127287E-06  0.113298E-06  0.959094E-07  0.770481E-07
  0.585374E-07  0.418326E-07  0.279283E-07  0.172996E-07
  0.988563E-08  0.518961E-08  0.249581E-08  0.109764E-08
  0.440945E-09  0.161666E-09  0.540573E-10  0.857771E-10
  0.258897E-09  0.712747E-09  0.179004E-08  0.410203E-08
  0.858115E-08  0.164059E-07  0.287312E-07  0.462801E-07
  0.690036E-07  0.960352E-07  0.125876E-06  0.156479E-06
  0.185139E-06  0.208669E-06  0.224129E-06  0.229620E-06
  0.224514E-06  0.209411E-06  0.186170E-06  0.157694E-06
  0.127162E-06  0.972892E-07  0.701317E-07  0.472051E-07
  0.294135E-07  0.168547E-07  0.884335E-08  0.423789E-08
  0.185246E-08  0.738166E-09  0.268068E-09  0.887028E-10
  0.129778E-09  0.396495E-09  0.110356E-08  0.279695E-08
  0.645215E-08  0.135445E-07  0.258840E-07  0.451041E-07
  0.719361E-07  0.105722E-06  0.144655E-06  0.186549E-06
  0.229131E-06  0.269351E-06  0.302905E-06  0.325259E-06
  0.333257E-06  0.325824E-06  0.303976E-06  0.270804E-06
  0.230811E-06  0.188327E-06  0.146428E-06  0.107371E-06
  0.733325E-07  0.461604E-07  0.265904E-07  0.139616E-07
  0.666962E-08  0.289719E-08  0.114445E-08  0.411254E-09
  0.134489E-09  0.181831E-09  0.563232E-09  0.158694E-08
  0.406290E-08  0.944147E-08  0.198951E-07  0.379949E-07
  0.657975E-07  0.103586E-06  0.149166E-06  0.198714E-06
  0.248952E-06  0.298321E-06  0.345160E-06  0.385224E-06
  0.412517E-06  0.422385E-06  0.413193E-06  0.386480E-06
  0.346813E-06  0.300201E-06  0.250996E-06  0.200889E-06
  0.151335E-06  0.105524E-06  0.673151E-07  0.390324E-07
  0.205157E-07  0.976752E-08  0.421386E-08  0.164869E-08
  0.585575E-09  0.188982E-09  0.236884E-09  0.745158E-09
  0.212820E-08  0.551015E-08  0.129118E-07  0.273373E-07
  0.522186E-07  0.899107E-07  0.139629E-06  0.196315E-06
  0.252361E-06  0.302279E-06  0.346359E-06  0.387735E-06
  0.425212E-06  0.452147E-06  0.462115E-06  0.452757E-06
  0.426288E-06  0.389048E-06  0.347827E-06  0.304080E-06
  0.254642E-06  0.198907E-06  0.142128E-06  0.919531E-07
  0.536481E-07  0.282037E-07  0.133706E-07  0.572355E-08
  0.221579E-08  0.776949E-09  0.247099E-09  0.288524E-09
  0.922973E-09  0.267492E-08  0.701049E-08  0.165816E-07
  0.353182E-07  0.675899E-07  0.115960E-06  0.178055E-06
  0.244723E-06  0.302541E-06  0.341649E-06  0.364048E-06
  0.381909E-06  0.402867E-06  0.421610E-06  0.429153E-06
  0.421906E-06  0.403235E-06  0.382089E-06  0.364257E-06
  0.342576E-06  0.304589E-06  0.247612E-06  0.181107E-06
  0.118560E-06  0.694487E-07  0.364577E-07  0.171887E-07
  0.729408E-08  0.279168E-08  0.965496E-09  0.302246E-09
  0.330988E-09  0.107744E-08  0.316978E-08  0.841180E-08
  0.200927E-07  0.430947E-07  0.827669E-07  0.141891E-06
  0.216367E-06  0.292471E-06  0.349842E-06  0.372097E-06
  0.360269E-06  0.336495E-06  0.325070E-06  0.327298E-06
  0.330051E-06  0.327069E-06  0.324206E-06  0.334761E-06
  0.358560E-06  0.371789E-06  0.351497E-06  0.295595E-06
  0.219951E-06  0.145047E-06  0.850579E-07  0.445102E-07
  0.208503E-07  0.876675E-08  0.331631E-08  0.113095E-08
  0.348328E-09  0.361077E-09  0.119511E-08  0.356595E-08
  0.957419E-08  0.230834E-07  0.498556E-07  0.961778E-07
  0.165116E-06  0.251112E-06  0.336364E-06  0.394170E-06
  0.401590E-06  0.356204E-06  0.284481E-06  0.228191E-06
  0.206300E-06  0.202684E-06  0.205450E-06  0.225733E-06
  0.280552E-06  0.352649E-06  0.400210E-06  0.395515E-06
  0.339722E-06  0.255184E-06  0.168775E-06  0.988586E-07
  0.515198E-07  0.239766E-07  0.999348E-08  0.373937E-08
  0.125862E-08  0.381727E-09  0.378923E-09  0.127156E-08
  0.383769E-08  0.104010E-07  0.252662E-07  0.548868E-07
  0.106314E-06  0.182914E-06  0.278123E-06  0.371197E-06
  0.430873E-06  0.429677E-06  0.362683E-06  0.256635E-06
  0.158607E-06  0.106012E-06  0.939173E-07  0.104455E-06
  0.154607E-06  0.251185E-06  0.358005E-06  0.427657E-06
  0.432064E-06  0.374766E-06  0.282579E-06  0.186961E-06
  0.109293E-06  0.567412E-07  0.262631E-07  0.108696E-07
  0.403186E-08  0.134281E-08  0.402169E-09  0.387035E-09
  0.130974E-08  0.398030E-08  0.108482E-07  0.264714E-07
  0.577065E-07  0.112061E-06  0.193107E-06  0.293752E-06
  0.391643E-06  0.453061E-06  0.448298E-06  0.371710E-06
  0.250929E-06  0.133196E-06  0.553269E-07  0.271077E-07
  0.528401E-07  0.128442E-06  0.244897E-06  0.366555E-06
  0.445985E-06  0.454191E-06  0.395339E-06  0.298427E-06
  0.197373E-06  0.115210E-06  0.596695E-07  0.275280E-07
  0.113455E-07  0.418665E-08  0.138564E-08  0.411871E-09
  0.388008E-09  0.131457E-08  0.399885E-08  0.109075E-07
  0.266336E-07  0.580902E-07  0.112850E-06  0.194513E-06
  0.295917E-06  0.394479E-06  0.456142E-06  0.450905E-06
  0.373090E-06  0.250601E-06  0.130891E-06  0.497441E-07
  0.140014E-07  0.469245E-07  0.125972E-06  0.244451E-06
  0.367848E-06  0.448542E-06  0.457261E-06  0.398191E-06
  0.300620E-06  0.198809E-06  0.116023E-06  0.600689E-07
  0.276997E-07  0.114099E-07  0.420771E-08  0.139158E-08
  0.413287E-09  0.382359E-09  0.128712E-08  0.389503E-08
  0.105799E-07  0.257479E-07  0.560140E-07  0.108612E-06
  0.186987E-06  0.284350E-06  0.379284E-06  0.439502E-06
  0.436595E-06  0.365322E-06  0.252754E-06  0.146158E-06
  0.844937E-07  0.688541E-07  0.824058E-07  0.141535E-06
  0.246857E-06  0.360349E-06  0.434419E-06  0.440658E-06
  0.382900E-06  0.288891E-06  0.191120E-06  0.111661E-06
  0.579159E-07  0.267734E-07  0.110640E-07  0.409673E-08
  0.136170E-08  0.406929E-09  0.368071E-09  0.122355E-08
  0.366453E-08  0.987031E-08  0.238600E-07  0.516389E-07
  0.997609E-07  0.171387E-06  0.260577E-06  0.348435E-06
  0.406569E-06  0.410344E-06  0.356406E-06  0.271589E-06
  0.200943E-06  0.170353E-06  0.164508E-06  0.169064E-06
  0.197607E-06  0.266784E-06  0.352259E-06  0.408659E-06
  0.407838E-06  0.351864E-06  0.264784E-06  0.175186E-06
  0.102554E-06  0.533804E-07  0.247999E-07  0.103148E-07
  0.385024E-08  0.129246E-08  0.390874E-09  0.342324E-09
  0.111954E-08  0.330743E-08  0.880868E-08  0.211030E-07
  0.453631E-07  0.872440E-07  0.149606E-06  0.227832E-06
  0.306786E-06  0.363929E-06  0.380686E-06  0.357215E-06
  0.317999E-06  0.293568E-06  0.289192E-06  0.290083E-06
  0.288596E-06  0.291933E-06  0.315273E-06  0.354694E-06
  0.379926E-06  0.365452E-06  0.309985E-06  0.231584E-06
  0.152941E-06  0.896801E-07  0.468788E-07  0.219214E-07
  0.919660E-08  0.347005E-08  0.118015E-08  0.362480E-09
  0.303934E-09  0.976537E-09  0.284154E-08  0.747334E-08
  0.177268E-07  0.378336E-07  0.724704E-07  0.124260E-06
  0.190264E-06  0.259861E-06  0.317454E-06  0.351298E-06
  0.363565E-06  0.369917E-06  0.382415E-06  0.396851E-06
  0.403069E-06  0.396882E-06  0.382242E-06  0.369348E-06
  0.363060E-06  0.351777E-06  0.319363E-06  0.262830E-06
  0.193499E-06  0.127057E-06  0.744901E-07  0.390848E-07
  0.184021E-07  0.779405E-08  0.297647E-08  0.102707E-08
  0.320838E-09  0.254914E-09  0.804884E-09  0.230689E-08
  0.599135E-08  0.140739E-07  0.298433E-07  0.570210E-07
  0.980308E-07  0.151618E-06  0.211522E-06  0.268480E-06
  0.315907E-06  0.354820E-06  0.390833E-06  0.424738E-06
  0.449961E-06  0.459408E-06  0.450438E-06  0.425541E-06
  0.391756E-06  0.355889E-06  0.317448E-06  0.270709E-06
  0.214226E-06  0.154310E-06  0.100270E-06  0.586101E-07
  0.308205E-07  0.146002E-07  0.624167E-08  0.241258E-08
  0.844671E-09  0.268310E-09  0.200306E-09  0.622316E-09
  0.175850E-08  0.451365E-08  0.105095E-07  0.221686E-07
  0.423251E-07  0.731440E-07  0.114635E-06  0.163839E-06
  0.215945E-06  0.267150E-06  0.316399E-06  0.363112E-06
  0.403560E-06  0.431413E-06  0.441525E-06  0.432075E-06
  0.404774E-06  0.364689E-06  0.318200E-06  0.269173E-06
  0.218196E-06  0.166168E-06  0.116768E-06  0.748453E-07
  0.435071E-07  0.228883E-07  0.108958E-07  0.469750E-08
  0.183638E-08  0.651789E-09  0.210296E-09  0.146550E-09
  0.448753E-09  0.125186E-08  0.317929E-08  0.734535E-08
  0.154303E-07  0.294733E-07  0.512538E-07  0.814196E-07
  0.118946E-06  0.161532E-06  0.206708E-06  0.252306E-06
  0.295453E-06  0.331666E-06  0.355915E-06  0.364615E-06
  0.356536E-06  0.332833E-06  0.297019E-06  0.254106E-06
  0.208624E-06  0.163470E-06  0.120782E-06  0.830002E-07
  0.524679E-07  0.302993E-07  0.159279E-07  0.761136E-08
  0.330590E-08  0.130567E-08  0.469227E-09  0.153539E-09
  0.993774E-10  0.300438E-09  0.828558E-09  0.208430E-08
  0.478232E-08  0.100103E-07  0.191316E-07  0.334537E-07
  0.537355E-07  0.798042E-07  0.110569E-06  0.144334E-06
  0.178912E-06  0.211384E-06  0.238160E-06  0.255820E-06
  0.262111E-06  0.256282E-06  0.239039E-06  0.212586E-06
  0.180311E-06  0.145806E-06  0.112007E-06  0.811055E-07
  0.548132E-07  0.342588E-07  0.196700E-07  0.103316E-07
  0.495349E-08  0.216581E-08  0.863321E-09  0.313741E-09
  0.103952E-09  0.622454E-10  0.186085E-09  0.507970E-09
  0.126681E-08  0.288787E-08  0.602258E-08  0.115066E-07
  0.201899E-07  0.326632E-07  0.490020E-07  0.686579E-07
  0.905024E-07  0.112885E-06  0.133691E-06  0.150603E-06
  0.161628E-06  0.165530E-06  0.161913E-06  0.151154E-06
  0.134460E-06  0.113795E-06  0.914643E-07  0.695884E-07
  0.498288E-07  0.333338E-07  0.206824E-07  0.118322E-07
  0.621562E-08  0.299049E-08  0.131575E-08  0.528923E-09
  0.194150E-09  0.650401E-10  0.359152E-10  0.106323E-09
  0.287589E-09  0.711460E-09  0.161148E-08  0.334622E-08
  0.638120E-08  0.112042E-07  0.181790E-07  0.273886E-07
  0.385358E-07  0.509302E-07  0.635388E-07  0.751068E-07
  0.843728E-07  0.903403E-07  0.924363E-07  0.904899E-07
  0.846674E-07  0.755277E-07  0.640487E-07  0.514783E-07
  0.390691E-07  0.278608E-07  0.185591E-07  0.114812E-07
  0.656319E-08  0.345382E-08  0.166868E-08  0.738805E-09
  0.299352E-09  0.110880E-09  0.375064E-10  0.190470E-10
  0.559053E-10  0.149968E-09  0.368184E-09  0.828469E-09
  0.171133E-08  0.325149E-08  0.569655E-08  0.923302E-08
  0.139015E-07  0.195360E-07  0.257533E-07  0.319971E-07
  0.376309E-07  0.420666E-07  0.448829E-07  0.458634E-07
  0.449503E-07  0.422029E-07  0.378320E-07  0.322485E-07
  0.260303E-07  0.198096E-07  0.141456E-07  0.942974E-08
  0.583976E-08  0.334550E-08  0.176692E-08  0.858079E-09
  0.382391E-09  0.156112E-09  0.583009E-10  0.198898E-10
  0.926561E-11  0.269933E-10  0.718679E-10  0.175157E-09
  0.391443E-09  0.803610E-09  0.151859E-08  0.264792E-08
  0.427281E-08  0.640357E-08  0.895069E-08  0.117228E-07
  0.144564E-07  0.168708E-07  0.187310E-07  0.198904E-07
  0.202892E-07  0.199166E-07  0.187860E-07  0.169557E-07
  0.145670E-07  0.118486E-07  0.907777E-08  0.651843E-08
  0.436609E-08  0.271610E-08  0.156347E-08  0.830224E-09
  0.405668E-09  0.182013E-09  0.748490E-10  0.281632E-10
  0.968011E-11  0.412702E-11  0.119438E-10  0.315848E-10
  0.764417E-10  0.169635E-09  0.345835E-09  0.649050E-09
  0.112395E-08  0.180072E-08  0.267787E-08  0.371069E-08
  0.481309E-08  0.587437E-08  0.678619E-08  0.746883E-08