<?xml version="1.0"?>
 <VTKFile type="ImageData" version="0.1" byte_order="LittleEndian">
   <ImageData WholeExtent="           0          32           0          32           0          32 " Origin="  -8.0000000000000000       -8.0000000000000000       -8.0000000000000000      " Spacing="  0.50000000000000000       0.50000000000000000       0.50000000000000000      ">
   <Piece Extent="           0          32           0          32           0          32 ">
   <PointData Scalars="scalars">
   <DataArray Name="scalars" type="Float64" NumberOfComponents="1" Format="ascii">
  0.443353E-13
  0.123246E-12  0.310765E-12  0.711176E-12  0.148075E-11
  0.280723E-11  0.485431E-11  0.767390E-11  0.111185E-10
  0.148148E-10  0.182390E-10  0.208883E-10  0.224716E-10
  0.230224E-10  0.228712E-10  0.224939E-10  0.223097E-10
  0.224999E-10  0.229280E-10  0.231880E-10  0.227751E-10
  0.213114E-10  0.187242E-10  0.152903E-10  0.115254E-10
  0.798143E-11  0.506095E-11  0.293113E-11  0.154714E-11
  0.743163E-12  0.324386E-12  0.128463E-12  0.461192E-13
  0.118984E-12  0.330473E-12  0.832502E-12  0.190432E-11
  0.396358E-11  0.751792E-11  0.130264E-10  0.206781E-10
  0.301794E-10  0.406827E-10  0.509553E-10  0.597604E-10
  0.662773E-10  0.703422E-10  0.723861E-10  0.731484E-10
  0.732914E-10  0.731207E-10  0.724442E-10  0.706326E-10
  0.668825E-10  0.606513E-10  0.520079E-10  0.417352E-10
  0.310937E-10  0.213776E-10  0.135011E-10  0.780471E-11
  0.411805E-11  0.197852E-11  0.864288E-12  0.342595E-12
  0.123100E-12  0.289746E-12  0.803999E-12  0.202340E-11
  0.462627E-11  0.962423E-11  0.182624E-10  0.317038E-10
  0.505437E-10  0.743485E-10  0.101497E-09  0.129500E-09
  0.155703E-09  0.178024E-09  0.195356E-09  0.207438E-09
  0.214458E-09  0.216697E-09  0.214357E-09  0.207472E-09
  0.195838E-09  0.179142E-09  0.157418E-09  0.131572E-09
  0.103605E-09  0.762071E-10  0.519842E-10  0.326921E-10
  0.188645E-10  0.995033E-11  0.478329E-11  0.209058E-11
  0.829493E-12  0.298318E-12  0.640513E-12  0.177705E-11
  0.447047E-11  0.102136E-10  0.212399E-10  0.403196E-10
  0.701298E-10  0.112306E-09  0.166578E-09  0.230479E-09
  0.299833E-09  0.369761E-09  0.435529E-09  0.492879E-09
  0.537841E-09  0.566694E-09  0.576586E-09  0.566566E-09
  0.537989E-09  0.493834E-09  0.437616E-09  0.372912E-09
  0.303638E-09  0.234371E-09  0.170043E-09  0.115022E-09
  0.720128E-10  0.414763E-10  0.218695E-10  0.105172E-10
  0.460001E-11  0.182607E-11  0.656716E-12  0.128873E-11
  0.357526E-11  0.899216E-11  0.205401E-10  0.427145E-10
  0.811394E-10  0.141431E-09  0.227560E-09  0.340467E-09
  0.477660E-09  0.633798E-09  0.801370E-09  0.970690E-09
  0.112918E-08  0.126112E-08  0.134956E-08  0.138085E-08
  0.134988E-08  0.126224E-08  0.113173E-08  0.974998E-09
  0.807235E-09  0.640566E-09  0.484471E-09  0.346521E-09
  0.232331E-09  0.144763E-09  0.831988E-10  0.438392E-10
  0.210822E-10  0.922230E-11  0.366113E-11  0.131676E-11
  0.236114E-11  0.655767E-11  0.165079E-10  0.377389E-10
  0.785551E-10  0.149446E-09  0.261219E-09  0.422468E-09
  0.637710E-09  0.907115E-09  0.122683E-08  0.158782E-08
  0.197218E-08  0.234892E-08  0.267384E-08  0.289688E-08
  0.297723E-08  0.289919E-08  0.267863E-08  0.235632E-08
  0.198193E-08  0.159925E-08  0.123894E-08  0.918777E-09
  0.647887E-09  0.430452E-09  0.266800E-09  0.152900E-09
  0.804409E-10  0.386444E-10  0.168895E-10  0.669820E-11
  0.240613E-11  0.394771E-11  0.109914E-10  0.277421E-10
  0.635904E-10  0.132738E-09  0.253342E-09  0.444676E-09
  0.723484E-09  0.110188E-08  0.158768E-08  0.218408E-08
  0.288391E-08  0.365702E-08  0.443819E-08  0.512674E-08
  0.560625E-08  0.578115E-08  0.561399E-08  0.514116E-08
  0.445744E-08  0.367899E-08  0.290665E-08  0.220604E-08
  0.160761E-08  0.111872E-08  0.736488E-09  0.453698E-09
  0.258899E-09  0.135756E-09  0.650291E-10  0.283422E-10
  0.112092E-10  0.401587E-11  0.603301E-11  0.168823E-10
  0.428378E-10  0.987440E-10  0.207333E-09  0.398171E-09
  0.703558E-09  0.115331E-08  0.177220E-08  0.258136E-08
  0.359762E-08  0.481998E-08  0.620177E-08  0.762381E-08
  0.889355E-08  0.978525E-08  0.101132E-07  0.980398E-08
  0.892718E-08  0.766628E-08  0.624693E-08  0.486338E-08
  0.363679E-08  0.261514E-08  0.179978E-08  0.117417E-08
  0.717832E-09  0.406872E-09  0.212013E-09  0.100954E-09
  0.437492E-10  0.172086E-10  0.613334E-11  0.845012E-11
  0.238461E-10  0.610647E-10  0.142146E-09  0.301559E-09
  0.585268E-09  0.104500E-08  0.173000E-08  0.268212E-08
  0.393761E-08  0.552673E-08  0.745362E-08  0.964943E-08
  0.119254E-07  0.139685E-07  0.154089E-07  0.159417E-07
  0.154448E-07  0.140321E-07  0.120039E-07  0.973055E-08
  0.752905E-08  0.559271E-08  0.399299E-08  0.272640E-08
  0.176291E-08  0.106720E-08  0.598631E-09  0.308669E-09
  0.145470E-09  0.624231E-10  0.243281E-10  0.859687E-11
  0.108845E-10  0.311187E-10  0.808300E-10  0.191047E-09
  0.411792E-09  0.812073E-09  0.147196E-08  0.246836E-08
  0.386217E-08  0.569538E-08  0.799223E-08  0.107408E-07
  0.138390E-07  0.170283E-07  0.198818E-07  0.218916E-07
  0.226363E-07  0.219476E-07  0.199806E-07  0.171496E-07
  0.139637E-07  0.108568E-07  0.809406E-08  0.578116E-08
  0.393068E-08  0.251895E-08  0.150576E-08  0.832217E-09
  0.422411E-09  0.195973E-09  0.828329E-10  0.318280E-10
  0.111011E-10  0.129574E-10  0.377517E-10  0.100074E-09
  0.241650E-09  0.532371E-09  0.107252E-08  0.198227E-08
  0.337655E-08  0.533434E-08  0.787897E-08  0.109777E-07
  0.145447E-07  0.184129E-07  0.222775E-07  0.256705E-07
  0.280364E-07  0.289111E-07  0.281069E-07  0.257951E-07
  0.224317E-07  0.185746E-07  0.147003E-07  0.111201E-07
  0.800304E-08  0.543533E-08  0.345155E-08  0.203225E-08
  0.110213E-08  0.547890E-09  0.248817E-09  0.102988E-09
  0.387881E-10  0.132779E-10  0.143616E-10  0.429329E-10
  0.116900E-09  0.290064E-09  0.656401E-09  0.135618E-08
  0.256271E-08  0.444081E-08  0.708479E-08  0.104638E-07
  0.144108E-07  0.186623E-07  0.229153E-07  0.268463E-07
  0.300964E-07  0.322796E-07  0.330738E-07  0.323461E-07
  0.302158E-07  0.269999E-07  0.230878E-07  0.188441E-07
  0.145919E-07  0.106316E-07  0.722596E-08  0.454709E-08
  0.263375E-08  0.139820E-08  0.678366E-09  0.300205E-09
  0.121031E-09  0.444138E-10  0.148271E-10  0.149853E-10
  0.462742E-10  0.130114E-09  0.333059E-09  0.775992E-09
  0.164585E-08  0.317964E-08  0.560191E-08  0.901944E-08
  0.133141E-07  0.181048E-07  0.228296E-07  0.269302E-07
  0.300429E-07  0.320857E-07  0.331907E-07  0.335418E-07
  0.332204E-07  0.321471E-07  0.301419E-07  0.270735E-07
  0.230158E-07  0.183181E-07  0.135276E-07  0.920602E-08
  0.574465E-08  0.327557E-08  0.170264E-08  0.805680E-09
  0.346781E-09  0.135726E-09  0.483036E-10  0.156333E-10
  0.149574E-10  0.479142E-10  0.139416E-09  0.368180E-09
  0.881911E-09  0.191542E-08  0.377225E-08  0.673952E-08
  0.109341E-07  0.161335E-07  0.216995E-07  0.266901E-07
  0.301711E-07  0.316177E-07  0.312412E-07  0.300496E-07
  0.294029E-07  0.299938E-07  0.311776E-07  0.316052E-07
  0.302481E-07  0.268612E-07  0.219365E-07  0.163903E-07
  0.111664E-07  0.691977E-08  0.389405E-08  0.198767E-08
  0.919726E-09  0.385696E-09  0.146610E-09  0.505368E-10
  0.158060E-10  0.145882E-10  0.483877E-10  0.145147E-09
  0.393492E-09  0.963609E-09  0.213117E-08  0.425717E-08
  0.768296E-08  0.125329E-07  0.184890E-07  0.246757E-07
  0.297855E-07  0.324744E-07  0.319041E-07  0.282785E-07
  0.233625E-07  0.207690E-07  0.231470E-07  0.280279E-07
  0.317491E-07  0.324713E-07  0.299327E-07  0.249283E-07
  0.187812E-07  0.128039E-07  0.789550E-08  0.440141E-08
  0.221691E-08  0.100855E-08  0.414361E-09  0.153756E-09
  0.515480E-10  0.156217E-10  0.142366E-10  0.483427E-10
  0.147876E-09  0.407386E-09  0.101076E-08  0.225889E-08
  0.454846E-08  0.825463E-08  0.135064E-07  0.199251E-07
  0.264831E-07  0.316345E-07  0.337448E-07  0.316665E-07
  0.252403E-07  0.157549E-07  0.879102E-08  0.152631E-07
  0.247985E-07  0.313941E-07  0.336803E-07  0.317625E-07
  0.267442E-07  0.202393E-07  0.138019E-07  0.848771E-08
  0.470704E-08  0.235329E-08  0.106034E-08  0.430467E-09
  0.157437E-09  0.518744E-10  0.154019E-10  0.141618E-10
  0.482574E-10  0.148047E-09  0.408845E-09  0.101641E-08
  0.227518E-08  0.458708E-08  0.833243E-08  0.136412E-07
  0.201269E-07  0.267392E-07  0.318974E-07  0.339225E-07
  0.316141E-07  0.247202E-07  0.141932E-07  0.464978E-08
  0.135938E-07  0.242250E-07  0.313104E-07  0.338418E-07
  0.320200E-07  0.270017E-07  0.204456E-07  0.139418E-07
  0.856978E-08  0.474870E-08  0.237151E-08  0.106710E-08
  0.432517E-09  0.157895E-09  0.519169E-10  0.153787E-10
  0.144132E-10  0.482301E-10  0.145798E-09  0.397880E-09
  0.979823E-09  0.217710E-08  0.436501E-08  0.789910E-08
  0.129069E-07  0.190476E-07  0.253863E-07  0.305211E-07
  0.329945E-07  0.318574E-07  0.272189E-07  0.208662E-07
  0.172835E-07  0.205374E-07  0.268580E-07  0.316251E-07
  0.329491E-07  0.306544E-07  0.256435E-07  0.193528E-07
  0.131922E-07  0.812364E-08  0.451782E-08  0.226830E-08
  0.102795E-08  0.420448E-09  0.155238E-09  0.517613E-10
  0.155968E-10  0.148073E-10  0.479431E-10  0.140902E-09
  0.375517E-09  0.906823E-09  0.198337E-08  0.392866E-08
  0.704957E-08  0.114675E-07  0.169295E-07  0.227172E-07
  0.277651E-07  0.310032E-07  0.318195E-07  0.304680E-07
  0.282498E-07  0.271047E-07  0.281148E-07  0.302978E-07
  0.317184E-07  0.310281E-07  0.279193E-07  0.229617E-07
  0.172053E-07  0.117206E-07  0.724732E-08  0.406308E-08
  0.206378E-08  0.949440E-09  0.395626E-09  0.149376E-09
  0.511405E-10  0.158892E-10  0.150029E-10  0.467780E-10
  0.132829E-09  0.343310E-09  0.807244E-09  0.172648E-08
  0.335939E-08  0.595162E-08  0.961548E-08  0.142025E-07
  0.192527E-07  0.240873E-07  0.280364E-07  0.307001E-07
  0.320990E-07  0.326106E-07  0.327010E-07  0.325883E-07
  0.320816E-07  0.307267E-07  0.281348E-07  0.242605E-07
  0.194766E-07  0.144380E-07  0.982573E-08  0.611432E-08
  0.346988E-08  0.179284E-08  0.842664E-09  0.360176E-09
  0.140012E-09  0.495191E-10  0.159417E-10  0.146461E-10
  0.441018E-10  0.121055E-09  0.302958E-09  0.691588E-09
  0.144098E-08  0.274376E-08  0.478379E-08  0.766147E-08
  0.113233E-07  0.155423E-07  0.199716E-07  0.242385E-07
  0.280108E-07  0.310007E-07  0.329446E-07  0.336327E-07
  0.329814E-07  0.310736E-07  0.281198E-07  0.243841E-07
  0.201491E-07  0.157369E-07  0.115132E-07  0.782564E-08
  0.490946E-08  0.282915E-08  0.149261E-08  0.719432E-09
  0.316382E-09  0.126850E-09  0.463451E-10  0.154257E-10
  0.135228E-10  0.395818E-10  0.105523E-09  0.256477E-09
  0.569114E-09  0.115503E-08  0.214981E-08  0.368366E-08
  0.584224E-08  0.863742E-08  0.120035E-07  0.158103E-07
  0.198554E-07  0.238239E-07  0.272620E-07  0.296384E-07
  0.305092E-07  0.296962E-07  0.273669E-07  0.239604E-07
  0.200093E-07  0.159709E-07  0.121612E-07  0.878160E-08
  0.596311E-08  0.377536E-08  0.221232E-08  0.119320E-08
  0.589983E-09  0.266694E-09  0.110004E-09  0.413449E-10
  0.141453E-10  0.116563E-10  0.334040E-10  0.870570E-10
  0.206648E-09  0.447680E-09  0.887780E-09  0.161829E-08
  0.272745E-08  0.428332E-08  0.632667E-08  0.887132E-08
  0.118901E-07  0.152638E-07  0.187139E-07  0.217872E-07
  0.239456E-07  0.247422E-07  0.239996E-07  0.218838E-07
  0.188356E-07  0.153939E-07  0.120172E-07  0.898844E-08
  0.642919E-08  0.436745E-08  0.279105E-08  0.166197E-08
  0.914806E-09  0.462693E-09  0.214122E-09  0.903913E-10
  0.347373E-10  0.121345E-10  0.929925E-11  0.262581E-10
  0.673353E-10  0.157089E-09  0.334246E-09  0.651022E-09
  0.116698E-08  0.193950E-08  0.301727E-08  0.444113E-08
  0.624371E-08  0.842778E-08  0.109151E-07  0.134924E-07
  0.158055E-07  0.174357E-07  0.180379E-07  0.174746E-07
  0.158749E-07  0.135793E-07  0.110069E-07  0.851549E-08
  0.632271E-08  0.450913E-08  0.307278E-08  0.198167E-08
  0.119629E-08  0.669444E-09  0.344648E-09  0.162353E-09
  0.697209E-10  0.272263E-10  0.965137E-11  0.682754E-11
  0.190926E-10  0.484428E-10  0.111726E-09  0.234871E-09
  0.451870E-09  0.800348E-09  0.131574E-08  0.202845E-08
  0.296539E-08  0.414910E-08  0.558132E-08  0.720889E-08
  0.889084E-08  0.103967E-07  0.114557E-07  0.118457E-07
  0.114784E-07  0.104374E-07  0.894222E-08  0.726369E-08
  0.563433E-08  0.419741E-08  0.300749E-08  0.206328E-08
  0.134260E-08  0.819319E-09  0.463978E-09  0.241809E-09
  0.115286E-09  0.500769E-10  0.197637E-10  0.707436E-11
  0.459567E-11  0.127758E-10  0.322103E-10  0.737869E-10
  0.154010E-09  0.294095E-09  0.516844E-09  0.842698E-09
  0.128760E-08  0.186363E-08  0.257838E-08  0.342676E-08
  0.437392E-08  0.533898E-08  0.619460E-08  0.679265E-08
  0.701150E-08  0.680326E-08  0.621396E-08  0.536412E-08
  0.440184E-08  0.345506E-08  0.260540E-08  0.188813E-08
  0.130849E-08  0.859182E-09  0.528678E-09  0.301749E-09
  0.158445E-09  0.760845E-10  0.332743E-10  0.132164E-10
  0.475903E-11  0.282828E-11  0.783733E-11  0.196945E-10
  0.449619E-10  0.935064E-10  0.177839E-09  0.311016E-09
  0.503845E-09  0.762992E-09  0.109081E-08  0.148549E-08
  0.193860E-08  0.242889E-08  0.291610E-08  0.334051E-08
  0.363382E-08  0.374012E-08  0.363752E-08  0.334760E-08
  0.292605E-08  0.244103E-08  0.195216E-08  0.149956E-08
  0.110438E-08  0.775038E-09  0.513575E-09  0.318100E-09
  0.182461E-09  0.962012E-10  0.463653E-10  0.203475E-10
  0.810910E-11  0.292953E-11  0.158793E-11  0.439460E-11
  0.110290E-10  0.251472E-10  0.522246E-10  0.991328E-10
  0.172823E-09  0.278467E-09  0.417949E-09  0.589490E-09
  0.788148E-09  0.100605E-08  0.123143E-08  0.144696E-08
  0.162947E-08  0.175326E-08  0.179743E-08  0.175394E-08
  0.163110E-08  0.144992E-08  0.123595E-08  0.101204E-08
  0.795134E-09  0.596722E-09  0.424623E-09  0.283963E-09
  0.176858E-09  0.101775E-09  0.537674E-10  0.259515E-10
  0.114037E-10  0.455084E-11  0.164628E-11  0.812171E-12
  0.224679E-11  0.563882E-11  0.128568E-10  0.266948E-10
  0.506278E-10  0.880585E-10  0.141200E-09  0.210083E-09
  0.292237E-09  0.383202E-09  0.477478E-09  0.569146E-09
  0.651901E-09  0.718813E-09  0.762746E-09  0.778013E-09
  0.762516E-09  0.718693E-09  0.652388E-09  0.570626E-09
  0.480036E-09  0.386583E-09  0.295959E-09  0.213615E-09
  0.144140E-09  0.902222E-10  0.520426E-10  0.275192E-10
  0.132857E-10  0.583838E-11  0.232996E-11  0.843237E-12
  0.377728E-12  0.104569E-11  0.262522E-11  0.598961E-11
  0.124400E-10  0.235821E-10  0.409357E-10  0.653409E-10
  0.964018E-10  0.132300E-09  0.170159E-09  0.206815E-09
  0.239595E-09  0.266642E-09  0.286775E-09  0.299164E-09
  0.303239E-09  0.298860E-09  0.286405E-09  0.266552E-09
  0.240062E-09  0.207918E-09  0.171765E-09  0.134135E-09
  0.981669E-10  0.668129E-10  0.420160E-10  0.242851E-10
  0.128477E-10  0.620083E-11  0.272320E-11  0.108643E-11
  0.392931E-12  0.159646E-12  0.442174E-12  0.111094E-11
  0.253629E-11  0.527026E-11  0.998642E-11  0.173018E-10
  0.274963E-10  0.402449E-10  0.545289E-10  0.688414E-10
  0.816403E-10  0.918342E-10  0.990419E-10  0.103507E-09
  0.105794E-09  0.106414E-09  0.105613E-09  0.103272E-09
  0.989328E-10  0.920041E-10  0.821291E-10  0.695818E-10
  0.553836E-10  0.410666E-10  0.281784E-10  0.177991E-10
  0.103078E-10  0.545549E-11  0.263176E-11  0.115504E-11
  0.460451E-12  0.166454E-12  0.611962E-13  0.169642E-12
  0.426685E-12  0.974699E-12  0.202566E-11  0.383630E-11
  0.663336E-11  0.104975E-10  0.152504E-10  0.204194E-10
  0.253342E-10  0.293413E-10  0.320413E-10  0.334224E-10
  0.338213E-10  0.337416E-10  0.336229E-10  0.336624E-10
  0.337195E-10  0.333788E-10  0.321190E-10  0.295574E-10
  0.256575E-10  0.207890E-10  0.156025E-10  0.107871E-10
  0.684272E-11  0.397060E-11  0.210254E-11  0.101410E-11
  0.444802E-12  0.177129E-12  0.639780E-13  0.212519E-13
  0.589925E-13  0.148494E-12  0.339306E-12  0.705349E-12
  0.133474E-11  0.230337E-11  0.363037E-11  0.523773E-11
  0.693734E-11  0.847041E-11  0.959385E-11  0.101764E-10
  0.102539E-10  0.100125E-10  0.970949E-11  0.956745E-11
  0.968177E-11  0.997871E-11  0.102446E-10  0.102147E-10
  0.968494E-11  0.860120E-11  0.708374E-11  0.537525E-11
  0.374227E-11  0.238352E-11  0.138577E-11  0.734367E-12
  0.354097E-12  0.155265E-12  0.617811E-13  0.222794E-13
  0.216328E-12  0.600336E-12  0.151019E-11  0.344962E-11
  0.715997E-11  0.135243E-10  0.232837E-10  0.366013E-10
  0.526488E-10  0.694952E-10  0.845144E-10  0.952628E-10
  0.100454E-09  0.100517E-09  0.974365E-10  0.939407E-10
  0.924230E-10  0.939180E-10  0.976312E-10  0.101229E-09
  0.101840E-09  0.972470E-10  0.868214E-10  0.717758E-10
  0.546110E-10  0.380899E-10  0.242867E-10  0.141268E-10
  0.748328E-11  0.360472E-11  0.157670E-11  0.625809E-12
  0.225041E-12  0.579571E-12  0.160598E-11  0.403685E-11
  0.921055E-11  0.191034E-10  0.360831E-10  0.621984E-10
  0.980935E-10  0.141990E-09  0.189404E-09  0.234088E-09
  0.270029E-09  0.293629E-09  0.304952E-09  0.307333E-09
  0.305705E-09  0.304415E-09  0.305402E-09  0.307329E-09
  0.306026E-09  0.296243E-09  0.274085E-09  0.239001E-09
  0.194388E-09  0.146359E-09  0.101456E-09  0.644898E-10
  0.374714E-10  0.198527E-10  0.957102E-11  0.419142E-11
  0.166549E-11  0.599607E-12  0.140791E-11  0.389871E-11
  0.978701E-11  0.223010E-10  0.462084E-10  0.872546E-10
  0.150564E-09  0.238244E-09  0.347188E-09  0.468489E-09
  0.589309E-09  0.696721E-09  0.781764E-09  0.841472E-09
  0.878181E-09  0.896805E-09  0.901919E-09  0.895798E-09
  0.877460E-09  0.842759E-09  0.786162E-09  0.704168E-09
  0.598714E-09  0.478286E-09  0.355951E-09  0.245099E-09
  0.155298E-09  0.901510E-10  0.477818E-10  0.230601E-10
  0.101122E-10  0.402229E-11  0.144946E-11  0.310671E-11
  0.859462E-11  0.215493E-10  0.490422E-10  0.101508E-09
  0.191591E-09  0.330914E-09  0.525389E-09  0.771147E-09
  0.105356E-08  0.135047E-08  0.163805E-08  0.189616E-08
  0.211051E-08  0.227127E-08  0.237084E-08  0.240379E-08
  0.236883E-08  0.226956E-08  0.211224E-08  0.190342E-08
  0.165088E-08  0.136706E-08  0.107117E-08  0.787184E-09
  0.538139E-09  0.339838E-09  0.197107E-09  0.104523E-09
  0.505004E-10  0.221726E-10  0.882975E-11  0.318477E-11
  0.623101E-11  0.172302E-10  0.431703E-10  0.981586E-10
  0.202998E-09  0.383031E-09  0.662247E-09  0.105517E-08
  0.156047E-08  0.216005E-08  0.282354E-08  0.351424E-08
  0.419165E-08  0.480967E-08  0.531427E-08  0.564795E-08
  0.576422E-08  0.564612E-08  0.531382E-08  0.481494E-08
  0.420551E-08  0.353661E-08  0.285171E-08  0.218987E-08
  0.158783E-08  0.107718E-08  0.677826E-09  0.392744E-09
  0.208333E-09  0.100739E-09  0.442683E-10  0.176403E-10
  0.636482E-11  0.113752E-10  0.314689E-10  0.788591E-10
  0.179302E-09  0.370798E-09  0.699921E-09  0.121205E-08
  0.193882E-08  0.289001E-08  0.405402E-08  0.540331E-08
  0.689356E-08  0.845142E-08  0.995830E-08  0.112464E-07
  0.121254E-07  0.124398E-07  0.121294E-07  0.112570E-07
  0.997876E-08  0.848338E-08  0.693573E-08  0.545178E-08
  0.410343E-08  0.293484E-08  0.197492E-08  0.123772E-08
  0.715994E-09  0.379635E-09  0.183565E-09  0.806593E-10
  0.321323E-10  0.115872E-10  0.189292E-10  0.524656E-10
  0.131709E-09  0.299970E-09  0.621395E-09  0.117533E-08
  0.204131E-08  0.328144E-08  0.493162E-08  0.700736E-08
  0.950898E-08  0.124013E-07  0.155640E-07  0.187395E-07
  0.215289E-07  0.234672E-07  0.241712E-07  0.234910E-07
  0.215744E-07  0.188032E-07  0.156408E-07  0.124858E-07
  0.959539E-08  0.708986E-08  0.500417E-08  0.333912E-08
  0.208212E-08  0.120079E-08  0.635334E-09  0.306648E-09
  0.134500E-09  0.534784E-10  0.192453E-10  0.287605E-10
  0.800440E-10  0.201810E-09  0.461698E-09  0.960930E-09
  0.182667E-08  0.319047E-08  0.516327E-08  0.782733E-08
  0.112501E-07  0.154907E-07  0.205469E-07  0.262367E-07
  0.320809E-07  0.372963E-07  0.409573E-07  0.423005E-07
  0.410245E-07  0.374177E-07  0.322360E-07  0.264047E-07
  0.207128E-07  0.156456E-07  0.113889E-07  0.794465E-08
  0.525439E-08  0.325403E-08  0.186591E-08  0.982212E-09
  0.471792E-09  0.205980E-09  0.815345E-10  0.292159E-10
  0.399796E-10  0.112092E-09  0.284894E-09  0.657459E-09
  0.138104E-08  0.265069E-08  0.467518E-08  0.763968E-08
  0.116910E-07  0.169576E-07  0.235625E-07  0.315383E-07
  0.406221E-07  0.500455E-07  0.585129E-07  0.644854E-07
  0.666908E-07  0.646237E-07  0.587581E-07  0.503491E-07
  0.409378E-07  0.318356E-07  0.238278E-07  0.171861E-07
  0.118785E-07  0.778218E-08  0.477280E-08  0.271010E-08
  0.141287E-08  0.672393E-09  0.291000E-09  0.114252E-09
  0.406318E-10  0.509882E-10  0.144668E-09  0.372549E-09
  0.872088E-09  0.185988E-08  0.362581E-08  0.649279E-08
  0.107549E-07  0.166324E-07  0.242787E-07  0.338022E-07
  0.451882E-07  0.580473E-07  0.713172E-07  0.832112E-07
  0.915950E-07  0.946998E-07  0.918192E-07  0.836066E-07
  0.718029E-07  0.585481E-07  0.456570E-07  0.342191E-07
  0.246360E-07  0.169229E-07  0.109728E-07  0.664005E-08
  0.371428E-08  0.190676E-08  0.893889E-09  0.381407E-09
  0.147792E-09  0.519331E-10  0.599089E-10  0.173041E-09
  0.454401E-09  0.108617E-08  0.236757E-08  0.471750E-08
  0.862344E-08  0.145344E-07  0.227434E-07  0.333282E-07
  0.461706E-07  0.609613E-07  0.770517E-07  0.931810E-07
  0.107372E-06  0.117277E-06  0.120938E-06  0.117566E-06
  0.107882E-06  0.938120E-07  0.777150E-07  0.616025E-07
  0.467625E-07  0.338500E-07  0.231730E-07  0.148566E-07
  0.883978E-08  0.484637E-08  0.243533E-08  0.111752E-08
  0.467124E-09  0.177548E-09  0.612902E-10  0.652770E-10
  0.193354E-09  0.521472E-09  0.128148E-08  0.287207E-08
  0.587833E-08  0.110095E-07  0.189240E-07  0.299810E-07
  0.440363E-07  0.604142E-07  0.780702E-07  0.957857E-07
  0.112220E-06  0.125839E-06  0.134995E-06  0.138326E-06
  0.135271E-06  0.126334E-06  0.112857E-06  0.965040E-07
  0.788301E-07  0.611766E-07  0.447475E-07  0.305833E-07
  0.193799E-07  0.113156E-07  0.605999E-08  0.296722E-08
  0.132543E-08  0.539354E-09  0.199743E-09  0.672720E-10
  0.666651E-10  0.204096E-09  0.569107E-09  0.144521E-08
  0.334220E-08  0.704024E-08  0.135178E-07  0.236892E-07
  0.379731E-07  0.558649E-07  0.757907E-07  0.954483E-07
  0.112544E-06  0.125565E-06  0.134135E-06  0.138777E-06
  0.140251E-06  0.138900E-06  0.134391E-06  0.125980E-06
  0.113148E-06  0.962359E-07  0.766962E-07  0.567744E-07
  0.387707E-07  0.243012E-07  0.139301E-07  0.728481E-08
  0.347019E-08  0.150439E-08  0.593285E-09  0.212819E-09
  0.694381E-10  0.648993E-10  0.206603E-09  0.597826E-09
  0.157095E-08  0.374650E-08  0.810584E-08  0.159110E-07
  0.283474E-07  0.458862E-07  0.675885E-07  0.907964E-07
  0.111600E-06  0.126118E-06  0.132163E-06  0.130599E-06
  0.125620E-06  0.122915E-06  0.125386E-06  0.130333E-06
  0.132115E-06  0.126449E-06  0.112331E-06  0.918080E-07
  0.686854E-07  0.468795E-07  0.291196E-07  0.164335E-07
  0.841619E-08  0.390906E-08  0.164628E-08  0.628752E-09
  0.217862E-09  0.685330E-10  0.617436E-10  0.204353E-09
  0.611942E-09  0.165653E-08  0.405153E-08  0.895066E-08
  0.178619E-07  0.322073E-07  0.524977E-07  0.773963E-07
  0.103240E-06  0.124572E-06  0.135785E-06  0.133382E-06
  0.118213E-06  0.976517E-07  0.868021E-07  0.967483E-07
  0.117165E-06  0.132739E-06  0.135784E-06  0.125207E-06
  0.104321E-06  0.786452E-07  0.536563E-07  0.331167E-07
  0.184797E-07  0.931822E-08  0.424438E-08  0.174614E-08
  0.648917E-09  0.217924E-09  0.661778E-10  0.592036E-10
  0.201376E-09  0.616862E-09  0.170132E-08  0.422486E-08
  0.944764E-08  0.190309E-07  0.345447E-07  0.565243E-07
  0.833790E-07  0.110802E-06  0.132325E-06  0.141119E-06
  0.132397E-06  0.105507E-06  0.658455E-07  0.367332E-07
  0.637897E-07  0.103662E-06  0.131264E-06  0.140862E-06
  0.132881E-06  0.111919E-06  0.847205E-07  0.577858E-07
  0.355403E-07  0.197088E-07  0.985167E-08  0.443728E-08
  0.180033E-08  0.657915E-09  0.216554E-09  0.642147E-10
  0.587228E-10  0.200578E-09  0.616533E-09  0.170525E-08
  0.424449E-08  0.950944E-08  0.191839E-07  0.348603E-07
  0.570799E-07  0.842170E-07  0.111872E-06  0.133426E-06
  0.141864E-06  0.132178E-06  0.103331E-06  0.593198E-07
  0.194381E-07  0.568194E-07  0.101268E-06  0.130917E-06
  0.141540E-06  0.133958E-06  0.112994E-06  0.855754E-07
  0.583605E-07  0.358720E-07  0.198736E-07  0.992104E-08
  0.446140E-08  0.180672E-08  0.658824E-09  0.216321E-09
  0.639674E-10  0.605788E-10  0.202540E-09  0.611897E-09
  0.166906E-08  0.410860E-08  0.912552E-08  0.182892E-07
  0.330841E-07  0.540369E-07  0.797165E-07  0.106208E-06
  0.127653E-06  0.137967E-06  0.133190E-06  0.113784E-06
  0.872193E-07  0.722429E-07  0.858512E-07  0.112284E-06
  0.132231E-06  0.137791E-06  0.128228E-06  0.107302E-06
  0.810130E-07  0.552493E-07  0.340392E-07  0.189401E-07
  0.951473E-08  0.431441E-08  0.176581E-08  0.652470E-09
  0.217757E-09  0.656931E-10  0.637244E-10  0.205239E-09
  0.600466E-09  0.159404E-08  0.383649E-08  0.836692E-08
  0.165327E-07  0.296057E-07  0.480804E-07  0.708913E-07
  0.950424E-07  0.116099E-06  0.129608E-06  0.133017E-06
  0.127372E-06  0.118100E-06  0.113313E-06  0.117540E-06
  0.126669E-06  0.132604E-06  0.129724E-06  0.116756E-06
  0.960786E-07  0.720589E-07  0.491525E-07  0.304449E-07
  0.171045E-07  0.870987E-08  0.401883E-08  0.168037E-08
  0.636981E-09  0.219067E-09  0.684211E-10  0.662556E-10
  0.204863E-09  0.577192E-09  0.148099E-08  0.345936E-08
  0.735483E-08  0.142368E-07  0.251112E-07  0.404238E-07
  0.595459E-07  0.805713E-07  0.100703E-06  0.117175E-06
  0.128322E-06  0.134199E-06  0.136358E-06  0.136742E-06
  0.136268E-06  0.134133E-06  0.128440E-06  0.117594E-06
  0.101434E-06  0.815141E-07  0.605383E-07  0.413116E-07
  0.258003E-07  0.147066E-07  0.763813E-08  0.361128E-08
  0.155368E-08  0.608298E-09  0.216793E-09  0.703621E-10
  0.661862E-10  0.197432E-09  0.536771E-09  0.133072E-08
  0.300988E-08  0.621657E-08  0.117414E-07  0.203244E-07
  0.323533E-07  0.475914E-07  0.651141E-07  0.835236E-07
  0.101309E-06  0.117090E-06  0.129628E-06  0.137788E-06
  0.140677E-06  0.137943E-06  0.129935E-06  0.117548E-06
  0.101918E-06  0.842644E-07  0.659273E-07  0.483873E-07
  0.330442E-07  0.208561E-07  0.121048E-07  0.643768E-08
  0.312991E-08  0.138896E-08  0.562077E-09  0.207289E-09
  0.696322E-10  0.622556E-10  0.180575E-09  0.476723E-09
  0.114686E-08  0.251794E-08  0.505565E-08  0.931143E-08
  0.157984E-07  0.248386E-07  0.364639E-07  0.504214E-07
  0.662185E-07  0.830600E-07  0.996399E-07  0.114035E-06
  0.123995E-06  0.127645E-06  0.124235E-06  0.114470E-06
  0.100205E-06  0.836961E-07  0.668821E-07  0.510743E-07
  0.370643E-07  0.253457E-07  0.161865E-07  0.957835E-08
  0.522012E-08  0.260863E-08  0.119162E-08  0.496511E-09
  0.188416E-09  0.650422E-10  0.544349E-10  0.154738E-09
  0.399640E-09  0.939167E-09  0.201262E-08  0.394524E-08
  0.710586E-08  0.118349E-07  0.183817E-07  0.268958E-07
  0.374470E-07  0.499612E-07  0.639808E-07  0.783581E-07
  0.911904E-07  0.100210E-06  0.103539E-06  0.100431E-06
  0.915848E-07  0.788542E-07  0.645109E-07  0.504794E-07
  0.379271E-07  0.273200E-07  0.187341E-07  0.121048E-07
  0.729353E-08  0.406275E-08  0.207858E-08  0.972322E-09
  0.414557E-09  0.160748E-09  0.566050E-10  0.438990E-10
  0.123101E-09  0.313172E-09  0.723990E-09  0.152469E-08
  0.293601E-08  0.519811E-08  0.852834E-08  0.131002E-07
  0.190621E-07  0.265501E-07  0.355972E-07  0.459042E-07
  0.565995E-07  0.662110E-07  0.729900E-07  0.754924E-07
  0.731453E-07  0.664879E-07  0.569460E-07  0.462703E-07
  0.359489E-07  0.268701E-07  0.193419E-07  0.133328E-07
  0.870835E-08  0.532528E-08  0.301706E-08  0.157100E-08
  0.747667E-09  0.323994E-09  0.127526E-09  0.455184E-10
  0.324948E-10  0.903434E-10  0.227669E-09  0.520924E-09
  0.108501E-08  0.206546E-08  0.361498E-08  0.586614E-08
  0.892281E-08  0.128761E-07  0.178106E-07  0.237396E-07
  0.304567E-07  0.373917E-07  0.436018E-07  0.479703E-07
  0.495768E-07  0.480571E-07  0.437577E-07  0.375892E-07
  0.306689E-07  0.239477E-07  0.180041E-07  0.130489E-07
  0.906954E-08  0.598196E-08  0.369834E-08  0.211948E-08
  0.111635E-08  0.537163E-09  0.235183E-09  0.934504E-10
  0.336439E-10  0.220093E-10  0.608906E-10  0.152639E-09
  0.347293E-09  0.719070E-09  0.136020E-08  0.236443E-08
  0.380771E-08  0.574022E-08  0.819421E-08  0.111883E-07
  0.146978E-07  0.185846E-07  0.225271E-07  0.260148E-07
  0.284501E-07  0.293390E-07  0.284875E-07  0.260835E-07
  0.226179E-07  0.186879E-07  0.148060E-07  0.112956E-07
  0.829518E-08  0.582922E-08  0.387978E-08  0.241722E-08
  0.139486E-08  0.739386E-09  0.357913E-09  0.157592E-09
  0.629539E-10  0.227778E-10  0.136108E-10  0.375654E-10
  0.939445E-10  0.213241E-09  0.440428E-09  0.830785E-09
  0.143883E-08  0.230459E-08  0.344523E-08  0.485696E-08
  0.651996E-08  0.839263E-08  0.103888E-07  0.123521E-07
  0.140517E-07  0.152219E-07  0.156437E-07  0.152323E-07
  0.140726E-07  0.123836E-07  0.104305E-07  0.844302E-08
  0.657577E-08  0.491357E-08  0.349740E-08  0.234787E-08
  0.147094E-08  0.852023E-09  0.452936E-09  0.219805E-09
  0.970170E-10  0.388501E-10  0.140913E-10  0.767199E-11
  0.211589E-10  0.528871E-10  0.120003E-09  0.247762E-09
  0.466988E-09  0.807215E-09  0.128746E-08  0.190932E-08
  0.265642E-08  0.349902E-08  0.439848E-08  0.530597E-08
  0.615675E-08  0.686724E-08  0.734476E-08  0.751347E-08
  0.734440E-08  0.686867E-08  0.616312E-08  0.531979E-08
  0.442029E-08  0.352708E-08  0.268723E-08  0.193883E-08
  0.131235E-08  0.825793E-09  0.479290E-09  0.255005E-09
  0.123803E-09  0.546658E-10  0.219032E-10  0.795081E-11
  0.393588E-11  0.108582E-10  0.271552E-10  0.616614E-10
  0.127393E-09  0.240150E-09  0.414630E-09  0.658891E-09
  0.969692E-09  0.133150E-08  0.172010E-08  0.210859E-08
  0.247191E-08  0.278801E-08  0.303593E-08  0.319513E-08
  0.324919E-08  0.319244E-08  0.303258E-08  0.278697E-08
  0.247564E-08  0.211793E-08  0.173406E-08  0.134777E-08
  0.985651E-09  0.672440E-09  0.424731E-09  0.246814E-09
  0.131301E-09  0.637041E-10  0.281092E-10  0.112568E-10
  0.408517E-11  0.183551E-11  0.506747E-11  0.126878E-10
  0.288445E-10  0.596553E-10  0.112503E-09  0.194054E-09
  0.307313E-09  0.448989E-09  0.608819E-09  0.771771E-09
  0.922451E-09  0.104934E-08  0.114684E-08  0.121421E-08