<?xml version="1.0"?>
 <VTKFile type="ImageData" version="0.1" byte_order="LittleEndian">
   <ImageData WholeExtent="           0          32           0          32           0          32 " Origin="  -8.0000000000000000       -8.0000000000000000       -8.0000000000000000      " Spacing="  0.50000000000000000       0.50000000000000000       0.50000000000000000      ">
   <Piece Extent="           0          32           0          32           0          32 ">
   <PointData Scalars="scalars">
   <DataArray Name="scalars" type="Float64" NumberOfComponents="1" Format="ascii">
  0.473260E-14
  0.226403E-13  0.863470E-13  0.279412E-12  0.786842E-12
  0.196287E-11  0.437270E-11  0.875850E-11  0.158631E-10
  0.261159E-10  0.392923E-10  0.543426E-10  0.695552E-10
  0.830420E-10  0.933165E-10  0.996179E-10  0.101782E-09
  0.998289E-10  0.937330E-10  0.836366E-10  0.702674E-10
  0.550854E-10  0.399760E-10  0.266751E-10  0.162707E-10
  0.902402E-11  0.452748E-11  0.204373E-11  0.824742E-12
  0.295018E-12  0.924252E-13  0.247283E-13  0.538446E-14
  0.218466E-13  0.917393E-13  0.326298E-12  0.101186E-11
  0.277240E-11  0.677274E-11  0.148482E-10  0.293686E-10
  0.526605E-10  0.860156E-10  0.128646E-09  0.177184E-09
  0.226198E-09  0.269692E-09  0.302895E-09  0.323303E-09
  0.330326E-09  0.324007E-09  0.304282E-09  0.271669E-09
  0.228563E-09  0.179653E-09  0.130926E-09  0.878899E-10
  0.540373E-10  0.302740E-10  0.153819E-10  0.705501E-11
  0.290655E-11  0.106922E-11  0.348426E-12  0.994628E-13
  0.242893E-13  0.804260E-13  0.314978E-12  0.107490E-11
  0.323782E-11  0.868366E-11  0.208633E-10  0.451249E-10
  0.882515E-10  0.156753E-09  0.254060E-09  0.377683E-09
  0.517940E-09  0.659433E-09  0.785126E-09  0.881284E-09
  0.940516E-09  0.960934E-09  0.942587E-09  0.885358E-09
  0.790924E-09  0.666368E-09  0.525185E-09  0.384393E-09
  0.259607E-09  0.160858E-09  0.909756E-10  0.467465E-10
  0.217300E-10  0.909998E-11  0.341778E-11  0.114500E-11
  0.339657E-12  0.883037E-13  0.251326E-12  0.943275E-12
  0.312696E-11  0.921873E-11  0.243083E-10  0.575833E-10
  0.123028E-09  0.238004E-09  0.418680E-09  0.672951E-09
  0.993658E-09  0.135588E-08  0.172074E-08  0.204515E-08
  0.229385E-08  0.244734E-08  0.250030E-08  0.245271E-08
  0.230442E-08  0.206017E-08  0.173870E-08  0.137468E-08
  0.101114E-08  0.687500E-09  0.429541E-09  0.245281E-09
  0.127405E-09  0.599463E-10  0.254544E-10  0.971869E-11
  0.332337E-11  0.101286E-11  0.273657E-12  0.683780E-12
  0.249723E-11  0.810401E-11  0.234914E-10  0.610642E-10
  0.142821E-09  0.301548E-09  0.576840E-09  0.100403E-08
  0.159827E-08  0.234059E-08  0.317365E-08  0.401054E-08
  0.475500E-08  0.532673E-08  0.568005E-08  0.580197E-08
  0.569230E-08  0.535084E-08  0.478929E-08  0.405158E-08
  0.321672E-08  0.238089E-08  0.163211E-08  0.102958E-08
  0.594165E-09  0.312091E-09  0.148577E-09  0.638839E-10
  0.247321E-10  0.859503E-11  0.267231E-11  0.740121E-12
  0.164894E-11  0.589835E-11  0.188287E-10  0.538222E-10
  0.138150E-09  0.319229E-09  0.665930E-09  0.125837E-08
  0.216342E-08  0.340301E-08  0.493044E-08  0.662780E-08
  0.832493E-08  0.983396E-08  0.109944E-07  0.117118E-07
  0.119590E-07  0.117362E-07  0.110425E-07  0.990254E-08
  0.840719E-08  0.671459E-08  0.501244E-08  0.347281E-08
  0.221693E-08  0.129522E-08  0.688685E-09  0.331812E-09
  0.144382E-09  0.565891E-10  0.199316E-10  0.629370E-11
  0.177661E-11  0.355343E-11  0.125123E-10  0.394163E-10
  0.111333E-09  0.282479E-09  0.645034E-09  0.132861E-08
  0.247614E-08  0.419422E-08  0.649695E-08  0.927640E-08
  0.123161E-07  0.153296E-07  0.180044E-07  0.200627E-07
  0.213341E-07  0.217711E-07  0.213760E-07  0.201457E-07
  0.181231E-07  0.154727E-07  0.124685E-07  0.942269E-08
  0.662414E-08  0.429397E-08  0.254633E-08  0.137275E-08
  0.669822E-09  0.294907E-09  0.116903E-09  0.416529E-10
  0.133182E-10  0.381465E-11  0.689069E-11  0.239682E-10
  0.746887E-10  0.208776E-09  0.524065E-09  0.118270E-08
  0.240348E-08  0.440963E-08  0.733485E-08  0.111352E-07
  0.155747E-07  0.202974E-07  0.249057E-07  0.289810E-07
  0.321189E-07  0.340519E-07  0.347120E-07  0.341123E-07
  0.322396E-07  0.291549E-07  0.251171E-07  0.205264E-07
  0.158011E-07  0.113391E-07  0.750041E-08  0.452963E-08
  0.248077E-08  0.122689E-08  0.546527E-09  0.218947E-09
  0.788021E-10  0.254578E-10  0.737486E-11  0.120942E-10
  0.416671E-10  0.128691E-09  0.356509E-09  0.886161E-09
  0.197711E-08  0.396216E-08  0.714341E-08  0.116257E-07
  0.171906E-07  0.233475E-07  0.295640E-07  0.354363E-07
  0.405953E-07  0.445809E-07  0.470229E-07  0.478455E-07
  0.470918E-07  0.447215E-07  0.408006E-07  0.356897E-07
  0.298486E-07  0.236455E-07  0.174765E-07  0.118708E-07
  0.732846E-08  0.408492E-08  0.204879E-08  0.923129E-09
  0.373422E-09  0.135579E-09  0.441731E-10  0.129108E-10
  0.193180E-10  0.660676E-10  0.202612E-09  0.557109E-09
  0.137294E-08  0.303094E-08  0.599125E-08  0.106049E-07
  0.168352E-07  0.240836E-07  0.313846E-07  0.379749E-07
  0.437090E-07  0.486886E-07  0.526140E-07  0.550003E-07
  0.557741E-07  0.550518E-07  0.527265E-07  0.488573E-07
  0.439236E-07  0.382415E-07  0.317064E-07  0.244325E-07
  0.171606E-07  0.108644E-07  0.616945E-08  0.313735E-08
  0.142866E-08  0.582851E-09  0.213164E-09  0.699210E-10
  0.205759E-10  0.282401E-10  0.960631E-10  0.293039E-09
  0.801090E-09  0.196053E-08  0.428935E-08  0.837500E-08
  0.145663E-07  0.225367E-07  0.310394E-07  0.383046E-07
  0.431823E-07  0.461536E-07  0.486315E-07  0.509464E-07
  0.523524E-07  0.527260E-07  0.523484E-07  0.509596E-07
  0.486548E-07  0.461938E-07  0.433072E-07  0.385679E-07
  0.314109E-07  0.229301E-07  0.149014E-07  0.861378E-08
  0.443512E-08  0.203790E-08  0.837144E-09  0.307895E-09
  0.101504E-09  0.300178E-10  0.380188E-10  0.128858E-09
  0.391661E-09  0.106637E-08  0.259667E-08  0.564264E-08
  0.109105E-07  0.187003E-07  0.282775E-07  0.375238E-07
  0.435339E-07  0.444149E-07  0.413538E-07  0.383103E-07
  0.373870E-07  0.369520E-07  0.365139E-07  0.368573E-07
  0.372429E-07  0.380731E-07  0.410647E-07  0.442730E-07
  0.436623E-07  0.378782E-07  0.287214E-07  0.191051E-07
  0.112089E-07  0.582833E-08  0.269632E-08  0.111312E-08
  0.410995E-09  0.135950E-09  0.403360E-10  0.474781E-10
  0.160571E-09  0.487009E-09  0.132275E-08  0.321081E-08
  0.694618E-08  0.133418E-07  0.226310E-07  0.336454E-07
  0.433593E-07  0.476496E-07  0.436029E-07  0.324125E-07
  0.208022E-07  0.161584E-07  0.140849E-07  0.118720E-07
  0.138771E-07  0.159068E-07  0.202252E-07  0.317121E-07
  0.431645E-07  0.476266E-07  0.436806E-07  0.341256E-07
  0.230949E-07  0.136930E-07  0.716781E-08  0.333070E-08
  0.137924E-08  0.510424E-09  0.169164E-09  0.502835E-10
  0.554630E-10  0.187371E-09  0.567702E-09  0.154004E-08
  0.373198E-08  0.805325E-08  0.154068E-07  0.259670E-07
  0.381976E-07  0.483248E-07  0.512784E-07  0.434480E-07
  0.259207E-07  0.544894E-08 -0.896013E-08 -0.123493E-07
 -0.103200E-07 -0.123572E-07 -0.942655E-08  0.460379E-08
  0.249779E-07  0.428179E-07  0.511447E-07  0.486170E-07
  0.387021E-07  0.264749E-07  0.157985E-07  0.830288E-08
  0.386775E-08  0.160419E-08  0.594317E-09  0.197135E-09
  0.586464E-10  0.611747E-10  0.206575E-09  0.625642E-09
  0.169638E-08  0.410764E-08  0.885227E-08  0.168982E-07
  0.283767E-07  0.414881E-07  0.519400E-07  0.540686E-07
  0.440380E-07  0.237541E-07 -0.786317E-08 -0.187536E-07
 -0.215009E-07 -0.190690E-07 -0.214420E-07 -0.191964E-07
 -0.826243E-08  0.228038E-07  0.433093E-07  0.538602E-07
  0.522055E-07  0.420027E-07  0.289104E-07  0.173153E-07
  0.911985E-08  0.425369E-08  0.176550E-08  0.654332E-09
  0.217094E-09  0.645992E-10  0.642783E-10  0.217023E-09
  0.657207E-09  0.178166E-08  0.431272E-08  0.928855E-08
  0.177116E-07  0.296868E-07  0.432649E-07  0.538641E-07
  0.554919E-07  0.441786E-07  0.220456E-07 -0.602239E-08
 -0.189323E-07 -0.182944E-07 -0.110946E-07 -0.179047E-07
 -0.191830E-07 -0.661534E-08  0.209936E-07  0.433718E-07
  0.552299E-07  0.541056E-07  0.437782E-07  0.302300E-07
  0.181397E-07  0.956436E-08  0.446360E-08  0.185313E-08
  0.686871E-09  0.227893E-09  0.678125E-10  0.647309E-10
  0.218540E-09  0.661771E-09  0.179394E-08  0.434213E-08
  0.935079E-08  0.178269E-07  0.298708E-07  0.435101E-07
  0.541210E-07  0.556604E-07  0.441293E-07  0.215921E-07
 -0.431359E-08 -0.182339E-07 -0.164963E-07  0.595308E-08
 -0.159751E-07 -0.184259E-07 -0.502809E-08  0.205039E-07
  0.433076E-07  0.553878E-07  0.543559E-07  0.440202E-07
  0.304128E-07  0.182548E-07  0.962668E-08  0.449310E-08
  0.186545E-08  0.691448E-09  0.229409E-09  0.682623E-10
  0.625310E-10  0.211118E-09  0.639301E-09  0.173311E-08
  0.419556E-08  0.903846E-08  0.172437E-07  0.289302E-07
  0.422336E-07  0.527384E-07  0.546451E-07  0.440779E-07
  0.231426E-07 -0.825894E-08 -0.197770E-07 -0.215614E-07
 -0.181005E-07 -0.214095E-07 -0.201514E-07 -0.873599E-08
  0.221817E-07  0.433235E-07  0.544128E-07  0.529882E-07
  0.427411E-07  0.294620E-07  0.176612E-07  0.930686E-08
  0.434219E-08  0.180251E-08  0.668084E-09  0.221657E-09
  0.659544E-10  0.576744E-10  0.194770E-09  0.589919E-09
  0.159970E-08  0.387467E-08  0.835531E-08  0.159678E-07
  0.268679E-07  0.394174E-07  0.496430E-07  0.522450E-07
  0.435128E-07  0.247670E-07  0.468434E-08 -0.130838E-07
 -0.166176E-07 -0.148654E-07 -0.166257E-07 -0.135639E-07
  0.445521E-08  0.238236E-07  0.428480E-07  0.520790E-07
  0.499162E-07  0.399154E-07  0.273765E-07  0.163626E-07
  0.860765E-08  0.401208E-08  0.166463E-08  0.616824E-09
  0.204619E-09  0.608744E-10  0.503686E-10  0.170233E-09
  0.515981E-09  0.140043E-08  0.339634E-08  0.733859E-08
  0.140703E-07  0.238010E-07  0.352277E-07  0.450530E-07
  0.488047E-07  0.432908E-07  0.296146E-07  0.148637E-07
  0.997223E-08  0.843976E-08  0.398103E-08  0.819778E-08
  0.980262E-08  0.141828E-07  0.288132E-07  0.427778E-07
  0.487341E-07  0.453526E-07  0.357045E-07  0.242702E-07
  0.144285E-07  0.756555E-08  0.351933E-08  0.145838E-08
  0.539962E-09  0.179008E-09  0.532205E-10  0.412622E-10
  0.139700E-09  0.424156E-09  0.115347E-08  0.280463E-08
  0.608268E-08  0.117287E-07  0.200189E-07  0.300715E-07
  0.394633E-07  0.448864E-07  0.441407E-07  0.385550E-07
  0.331350E-07  0.310359E-07  0.299577E-07  0.291369E-07
  0.298318E-07  0.308482E-07  0.328075E-07  0.381442E-07
  0.439009E-07  0.449579E-07  0.397965E-07  0.305166E-07
  0.204342E-07  0.120382E-07  0.627621E-08  0.290872E-08
  0.120230E-08  0.444317E-09  0.147069E-09  0.436567E-10
  0.314316E-10  0.106749E-09  0.325110E-09  0.887193E-09
  0.216666E-08  0.472734E-08  0.919536E-08  0.159057E-07
  0.244060E-07  0.331830E-07  0.401323E-07  0.439220E-07
  0.453047E-07  0.463760E-07  0.478239E-07  0.487058E-07
  0.488589E-07  0.486803E-07  0.477988E-07  0.463371E-07
  0.452627E-07  0.439740E-07  0.403537E-07  0.335439E-07
  0.248081E-07  0.162562E-07  0.944810E-08  0.488257E-08
  0.224927E-08  0.925700E-09  0.340945E-09  0.112523E-09
  0.333060E-10  0.220965E-10  0.754047E-10  0.230740E-09
  0.632959E-09  0.155559E-08  0.342243E-08  0.673464E-08
  0.118471E-07  0.186433E-07  0.263442E-07  0.337646E-07
  0.400484E-07  0.452194E-07  0.496852E-07  0.532707E-07
  0.554356E-07  0.561168E-07  0.554786E-07  0.533677E-07
  0.498293E-07  0.454016E-07  0.402866E-07  0.340747E-07
  0.266996E-07  0.189860E-07  0.121256E-07  0.692809E-08
  0.353866E-08  0.161662E-08  0.661155E-09  0.242270E-09
  0.795941E-10  0.234534E-10  0.142436E-10  0.489323E-10
  0.150710E-09  0.416295E-09  0.103141E-08  0.229226E-08
  0.457150E-08  0.819056E-08  0.132218E-07  0.193492E-07
  0.259579E-07  0.324504E-07  0.384713E-07  0.437405E-07
  0.478168E-07  0.503021E-07  0.511325E-07  0.503735E-07
  0.479625E-07  0.439517E-07  0.387300E-07  0.327426E-07
  0.262700E-07  0.196556E-07  0.134895E-07  0.839557E-08
  0.470874E-08  0.237282E-08  0.107305E-08  0.435342E-09
  0.158443E-09  0.517285E-10  0.151461E-10  0.837077E-11
  0.290113E-10  0.900961E-10  0.250985E-09  0.627723E-09
  0.141080E-08  0.285315E-08  0.520404E-08  0.859542E-08
  0.129424E-07  0.179432E-07  0.231885E-07  0.282614E-07
  0.327337E-07  0.361725E-07  0.382831E-07  0.390018E-07
  0.383516E-07  0.363088E-07  0.329286E-07  0.284965E-07
  0.234426E-07  0.181955E-07  0.131718E-07  0.878372E-08
  0.534177E-08  0.294244E-08  0.146206E-08  0.653815E-09
  0.262786E-09  0.948487E-10  0.307194E-10  0.891971E-11
  0.446100E-11  0.156361E-10  0.490540E-10  0.138010E-09
  0.348775E-09  0.793048E-09  0.162583E-08  0.301409E-08
  0.507526E-08  0.781159E-08  0.110823E-07  0.146296E-07
  0.181276E-07  0.212245E-07  0.236033E-07  0.250690E-07
  0.255723E-07  0.251196E-07  0.237030E-07  0.213660E-07
  0.182968E-07  0.148089E-07  0.112543E-07  0.796159E-08
  0.519351E-08  0.309775E-08  0.167867E-08  0.822795E-09
  0.363694E-09  0.144682E-09  0.517180E-10  0.165871E-10
  0.476497E-11  0.214403E-11  0.762387E-11  0.242140E-10
  0.689006E-10  0.176084E-09  0.405117E-09  0.841288E-09
  0.158216E-08  0.270654E-08  0.423579E-08  0.610759E-08
  0.817624E-08  0.102370E-07  0.120654E-07  0.134689E-07
  0.143350E-07  0.146336E-07  0.143661E-07  0.135299E-07
  0.121516E-07  0.103396E-07  0.828375E-08  0.620884E-08
  0.432195E-08  0.277272E-08  0.162787E-08  0.869577E-09
  0.420777E-09  0.183833E-09  0.723286E-10  0.255707E-10
  0.810462E-11  0.229672E-11  0.923490E-12  0.334589E-11
  0.107886E-10  0.311031E-10  0.804560E-10  0.187315E-09
  0.393735E-09  0.749871E-09  0.129953E-08  0.206001E-08
  0.300533E-08  0.406195E-08  0.512043E-08  0.606017E-08
  0.678071E-08  0.722532E-08  0.737889E-08  0.724178E-08
  0.681288E-08  0.610554E-08  0.517424E-08  0.411803E-08
  0.305755E-08  0.210377E-08  0.133256E-08  0.772286E-09
  0.407387E-09  0.194767E-09  0.840987E-10  0.326978E-10
  0.114140E-10  0.356573E-11  0.992774E-12  0.353630E-12
  0.131395E-11  0.431873E-11  0.126457E-10  0.331538E-10
  0.781420E-10  0.166187E-09  0.320121E-09  0.560883E-09
  0.898213E-09  0.132200E-08  0.179909E-08  0.227848E-08
  0.270395E-08  0.302961E-08  0.323034E-08  0.329972E-08
  0.323795E-08  0.304447E-08  0.272489E-08  0.230328E-08
  0.182483E-08  0.134580E-08  0.917956E-09  0.575600E-09
  0.329978E-09  0.172113E-09  0.813377E-10  0.346988E-10
  0.133152E-10  0.457882E-11  0.140452E-11  0.381927E-12
  0.119096E-12  0.458210E-12  0.154478E-11  0.461139E-11
  0.122797E-10  0.293299E-10  0.631177E-10  0.122893E-09
  0.217424E-09  0.351173E-09  0.520503E-09  0.712060E-09
  0.904858E-09  0.107581E-08  0.120637E-08  0.128671E-08
  0.131448E-08  0.128982E-08  0.121244E-08  0.108436E-08
  0.914975E-09  0.722536E-09  0.530143E-09  0.359111E-09
  0.223286E-09  0.126778E-09  0.654279E-10  0.305623E-10
  0.128692E-10  0.486417E-11  0.164193E-11  0.491690E-12
  0.129446E-12  0.344796E-13  0.140438E-12  0.490215E-12
  0.150075E-11  0.407339E-11  0.987828E-11  0.215285E-10
  0.423714E-10  0.756575E-10  0.123140E-09  0.183621E-09
  0.252288E-09  0.321463E-09  0.382722E-09  0.429402E-09
  0.458066E-09  0.467968E-09  0.459198E-09  0.431609E-09
  0.385830E-09  0.325138E-09  0.256086E-09  0.187103E-09
  0.125989E-09  0.777452E-10  0.437425E-10  0.223358E-10
  0.103044E-10  0.427501E-11  0.158620E-11  0.522660E-12
  0.151481E-12  0.378383E-13  0.824534E-14  0.370143E-13
  0.136672E-12  0.433000E-12  0.120474E-11  0.297628E-11
  0.658095E-11  0.131038E-10  0.236192E-10  0.387315E-10
  0.580842E-10  0.801220E-10  0.102338E-09  0.121988E-09
  0.136927E-09  0.146080E-09  0.149241E-09  0.146448E-09
  0.137644E-09  0.122997E-09  0.103531E-09  0.813519E-10
  0.592074E-10  0.396456E-10  0.242841E-10  0.135366E-10
  0.683331E-11  0.310802E-11  0.126629E-11  0.458735E-12
  0.146300E-12  0.402255E-13  0.920010E-14  0.147082E-14
  0.807480E-14  0.327886E-13  0.109766E-12  0.315771E-12
  0.799054E-12  0.179839E-11  0.362942E-11  0.661027E-11
  0.109263E-10  0.164823E-10  0.228279E-10  0.292301E-10
  0.348871E-10  0.391794E-10  0.418041E-10  0.427097E-10
  0.419113E-10  0.393882E-10  0.351807E-10  0.295763E-10
  0.231840E-10  0.168062E-10  0.111884E-10  0.679942E-11
  0.375141E-11  0.186872E-11  0.835278E-12  0.332440E-12
  0.116613E-12  0.352901E-13  0.888554E-14  0.170952E-14
  0.142996E-13  0.801485E-13  0.326471E-12  0.109233E-11
  0.314564E-11  0.795406E-11  0.178818E-10  0.360452E-10
  0.655791E-10  0.108318E-09  0.163359E-09  0.226336E-09
  0.290083E-09  0.346673E-09  0.389835E-09  0.416331E-09
  0.425430E-09  0.417201E-09  0.391550E-09  0.349121E-09
  0.293012E-09  0.229386E-09  0.166162E-09  0.110604E-09
  0.672410E-10  0.371239E-10  0.185081E-10  0.827978E-11
  0.329763E-11  0.115610E-11  0.350620E-12  0.884250E-13
  0.168875E-13  0.773373E-13  0.346785E-12  0.127713E-11
  0.404458E-11  0.112332E-10  0.276939E-10  0.611009E-10
  0.121395E-09  0.218372E-09  0.357522E-09  0.535633E-09
  0.738667E-09  0.943908E-09  0.112620E-08  0.126548E-08
  0.135114E-08  0.138062E-08  0.135406E-08  0.127123E-08
  0.113440E-08  0.953706E-09  0.748884E-09  0.545054E-09
  0.365255E-09  0.224042E-09  0.125116E-09  0.632888E-10
  0.288483E-10  0.117805E-10  0.427821E-11  0.136710E-11
  0.377722E-12  0.872990E-13  0.304080E-12  0.123278E-11
  0.429632E-11  0.131184E-10  0.355069E-10  0.858519E-10
  0.186520E-09  0.365944E-09  0.651481E-09  0.105765E-08
  0.157420E-08  0.216075E-08  0.275287E-08  0.327922E-08
  0.368212E-08  0.393042E-08  0.401601E-08  0.393904E-08
  0.369908E-08  0.330335E-08  0.278172E-08  0.219086E-08
  0.160207E-08  0.108066E-08  0.668489E-09  0.377214E-09
  0.193219E-09  0.894273E-10  0.372224E-10  0.138594E-10
  0.458508E-11  0.133452E-11  0.336628E-12  0.982481E-12
  0.377030E-11  0.126691E-10  0.376945E-10  0.100029E-09
  0.238021E-09  0.510161E-09  0.989176E-09  0.174292E-08
  0.280469E-08  0.414481E-08  0.565924E-08  0.718540E-08
  0.854296E-08  0.958411E-08  0.102269E-07  0.104487E-07
  0.102493E-07  0.962818E-08  0.860562E-08  0.726029E-08
  0.573757E-08  0.421761E-08  0.286523E-08  0.178806E-08
  0.101940E-08  0.528319E-09  0.247817E-09  0.104778E-09
  0.397662E-10  0.134835E-10  0.405943E-11  0.107540E-11
  0.273350E-11  0.101179E-10  0.331362E-10  0.966665E-10
  0.252411E-09  0.592250E-09  0.125332E-08  0.240139E-08
  0.418458E-08  0.666662E-08  0.976857E-08  0.132508E-07
  0.167502E-07  0.198638E-07  0.222557E-07  0.237341E-07
  0.242442E-07  0.237852E-07  0.223563E-07  0.200070E-07
  0.169215E-07  0.134306E-07  0.993666E-08  0.680769E-08
  0.429099E-08  0.247349E-08  0.129716E-08  0.616178E-09
  0.264132E-09  0.101826E-09  0.351798E-10  0.108478E-10
  0.296909E-11  0.668180E-11  0.241179E-10  0.774784E-10
  0.222472E-09  0.572877E-09  0.132682E-08  0.277235E-08
  0.524478E-08  0.902424E-08  0.142027E-07  0.205853E-07
  0.276793E-07  0.347734E-07  0.410825E-07  0.459345E-07
  0.489342E-07  0.499684E-07  0.490361E-07  0.461354E-07
  0.413689E-07  0.351168E-07  0.280415E-07  0.209275E-07
  0.144938E-07  0.924726E-08  0.539831E-08  0.286711E-08
  0.137921E-08  0.598826E-09  0.233999E-09  0.820776E-10
  0.257695E-10  0.721670E-11  0.145314E-10  0.514879E-10
  0.162922E-09  0.461658E-09  0.117405E-08  0.268535E-08
  0.553762E-08  0.103290E-07  0.175055E-07  0.271263E-07
  0.387407E-07  0.514432E-07  0.640371E-07  0.752163E-07
  0.838193E-07  0.891339E-07  0.909603E-07  0.893088E-07
  0.841656E-07  0.757119E-07  0.646344E-07  0.520792E-07
  0.393511E-07  0.276568E-07  0.179213E-07  0.106215E-07
  0.572158E-08  0.278863E-08  0.122584E-08  0.484888E-09
  0.172259E-09  0.548577E-10  0.156261E-10  0.283590E-10
  0.990737E-10  0.309706E-09  0.867699E-09  0.218168E-08
  0.492938E-08  0.100259E-07  0.184048E-07  0.306258E-07
  0.465050E-07  0.650553E-07  0.847885E-07  0.104044E-06
  0.121072E-06  0.134184E-06  0.142261E-06  0.145019E-06
  0.142513E-06  0.134688E-06  0.121798E-06  0.104926E-06
  0.857443E-07  0.659997E-07  0.473554E-07  0.313160E-07
  0.189050E-07  0.103480E-07  0.511358E-08  0.227533E-08
  0.910132E-09  0.326884E-09  0.105304E-09  0.303882E-10
  0.500011E-10  0.172791E-09  0.534864E-09  0.148412E-08
  0.369335E-08  0.824710E-08  0.165369E-07  0.298261E-07
  0.485541E-07  0.718067E-07  0.975322E-07  0.123504E-06
  0.148037E-06  0.169589E-06  0.186239E-06  0.196441E-06
  0.199875E-06  0.196727E-06  0.186825E-06  0.170445E-06
  0.149093E-06  0.124691E-06  0.987752E-07  0.729988E-07
  0.495757E-07  0.305978E-07  0.170486E-07  0.854591E-08
  0.384753E-08  0.155471E-08  0.563640E-09  0.183273E-09
  0.534228E-10  0.801307E-10  0.274627E-09  0.843512E-09
  0.232196E-08  0.572689E-08  0.126500E-07  0.250150E-07
  0.442903E-07  0.703220E-07  0.100609E-06  0.131112E-06
  0.158644E-06  0.182596E-06  0.203395E-06  0.219790E-06
  0.229754E-06  0.232985E-06  0.229968E-06  0.220258E-06
  0.204097E-06  0.183490E-06  0.159756E-06  0.132454E-06
  0.102063E-06  0.716786E-07  0.453721E-07  0.257580E-07
  0.130938E-07  0.595933E-08  0.242942E-08  0.887599E-09
  0.290745E-09  0.854005E-10  0.117425E-09  0.400009E-09
  0.122149E-08  0.334174E-08  0.818269E-08  0.179091E-07
  0.349767E-07  0.608437E-07  0.941455E-07  0.129671E-06
  0.160024E-06  0.180398E-06  0.192805E-06  0.203150E-06
  0.212813E-06  0.218681E-06  0.220239E-06  0.218663E-06
  0.212867E-06  0.203245E-06  0.192972E-06  0.180919E-06
  0.161122E-06  0.131220E-06  0.957863E-07  0.622412E-07
  0.359728E-07  0.185174E-07  0.850562E-08  0.349231E-08
  0.128358E-08  0.422768E-09  0.124871E-09  0.158373E-09
  0.537270E-09  0.163410E-08  0.445122E-08  0.108424E-07
  0.235660E-07  0.455733E-07  0.781185E-07  0.118131E-06
  0.156761E-06  0.181868E-06  0.185543E-06  0.172746E-06
  0.160023E-06  0.156160E-06  0.154337E-06  0.152502E-06
  0.153940E-06  0.155557E-06  0.159033E-06  0.171540E-06
  0.184952E-06  0.182405E-06  0.158241E-06  0.119984E-06
  0.798085E-07  0.468194E-07  0.243413E-07  0.112586E-07
  0.464654E-08  0.171492E-08  0.566942E-09  0.168078E-09
  0.198046E-09  0.670146E-09  0.203330E-08  0.552398E-08
  0.134110E-07  0.290159E-07  0.557356E-07  0.945441E-07
  0.140558E-06  0.181138E-06  0.199058E-06  0.182144E-06
  0.135384E-06  0.868714E-07  0.674738E-07  0.588101E-07
  0.495546E-07  0.579398E-07  0.664232E-07  0.844663E-07
  0.132466E-06  0.180320E-06  0.198967E-06  0.182484E-06
  0.142566E-06  0.964829E-07  0.572034E-07  0.299421E-07
  0.139121E-07  0.576018E-08  0.213124E-08  0.706109E-09
  0.209796E-09  0.231582E-09  0.782553E-09  0.237139E-08
  0.643364E-08  0.155914E-07  0.336453E-07  0.643674E-07
  0.108485E-06  0.159578E-06  0.201881E-06  0.214213E-06
  0.181492E-06  0.108260E-06  0.227307E-07 -0.374706E-07
 -0.516283E-07 -0.431516E-07 -0.516554E-07 -0.394097E-07
  0.192134E-07  0.104335E-06  0.178872E-06  0.213665E-06
  0.203110E-06  0.161691E-06  0.110610E-06  0.660061E-07
  0.346893E-07  0.161593E-07  0.670202E-08  0.248277E-08
  0.823432E-09  0.244917E-09  0.255602E-09  0.863173E-09
  0.261429E-08  0.708839E-08  0.171634E-07  0.369869E-07
  0.706019E-07  0.118555E-06  0.173325E-06  0.216982E-06
  0.225864E-06  0.183951E-06  0.992091E-07 -0.328703E-07
 -0.783845E-07 -0.898549E-07 -0.796884E-07 -0.896026E-07
 -0.802242E-07 -0.345360E-07  0.952542E-07  0.180924E-06
  0.225009E-06  0.218104E-06  0.175484E-06  0.120791E-06
  0.723482E-07  0.381069E-07  0.177748E-07  0.737775E-08
  0.273441E-08  0.907224E-09  0.269947E-09  0.268665E-09
  0.907059E-09  0.274668E-08  0.744562E-08  0.180218E-07
  0.388116E-07  0.740021E-07  0.124030E-06  0.180748E-06
  0.225016E-06  0.231806E-06  0.184534E-06  0.920653E-07
 -0.251871E-07 -0.791245E-07 -0.764472E-07 -0.463590E-07
 -0.748151E-07 -0.801620E-07 -0.276556E-07  0.876889E-07
  0.181184E-06  0.230730E-06  0.226041E-06  0.182904E-06
  0.126307E-06  0.757955E-07  0.399666E-07  0.186535E-07
  0.774489E-08  0.287090E-08  0.952583E-09  0.283469E-09
  0.270567E-09  0.913422E-09  0.276579E-08  0.749699E-08
  0.181447E-07  0.390716E-07  0.744839E-07  0.124798E-06
  0.181772E-06  0.226088E-06  0.232507E-06  0.184327E-06
  0.901683E-07 -0.180451E-07 -0.762009E-07 -0.689310E-07
  0.248750E-07 -0.667511E-07 -0.769953E-07 -0.210215E-07
  0.856423E-07  0.180916E-06  0.231389E-06  0.227086E-06
  0.183916E-06  0.127070E-06  0.762768E-07  0.402272E-07
  0.187769E-07  0.779648E-08  0.289007E-08  0.958940E-09
  0.285357E-09  0.261299E-09  0.882224E-09  0.267149E-08
  0.724203E-08  0.175309E-07  0.377647E-07  0.720446E-07
  0.120866E-06  0.176436E-06  0.220312E-06  0.228267E-06
  0.184114E-06  0.966513E-07 -0.345142E-07 -0.826469E-07
 -0.900948E-07 -0.756323E-07 -0.894575E-07 -0.842038E-07
 -0.365052E-07  0.926557E-07  0.180983E-06  0.227316E-06
  0.221372E-06  0.178567E-06  0.123095E-06  0.737933E-07
  0.388886E-07  0.181449E-07  0.753257E-08  0.279199E-08
  0.926342E-09  0.275630E-09  0.240863E-09  0.813564E-09
  0.246440E-08  0.668318E-08  0.161878E-07  0.349071E-07
  0.667098E-07  0.112246E-06  0.164668E-06  0.207381E-06
  0.218245E-06  0.181759E-06  0.103443E-06  0.195581E-07
 -0.546830E-07 -0.694425E-07 -0.621201E-07 -0.694726E-07
 -0.566806E-07  0.186112E-07  0.995183E-07  0.178998E-06
  0.217567E-06  0.208534E-06  0.166757E-06  0.114376E-06
  0.683624E-07  0.359630E-07  0.167628E-07  0.695482E-08
  0.257696E-08  0.854769E-09  0.254251E-09  0.210161E-09
  0.710609E-09  0.215452E-08  0.584881E-08  0.141864E-07
  0.306551E-07  0.587777E-07  0.994286E-07  0.147163E-06
  0.188207E-06  0.203877E-06  0.180839E-06  0.123703E-06
  0.620801E-07  0.416572E-07  0.352568E-07  0.166176E-07
  0.342429E-07  0.409476E-07  0.592435E-07  0.120366E-06
  0.178707E-06  0.203592E-06  0.189465E-06  0.149159E-06
  0.101392E-06  0.602758E-07  0.316041E-07  0.147006E-07
  0.609109E-08  0.225479E-08  0.747296E-09  0.222085E-09
  0.171950E-09  0.582629E-09  0.176998E-08  0.481524E-08
  0.117113E-07  0.254041E-07  0.489904E-07  0.836241E-07
  0.125620E-06  0.164856E-06  0.187513E-06  0.184398E-06
  0.161063E-06  0.138422E-06  0.129654E-06  0.125148E-06
  0.121717E-06  0.124621E-06  0.128870E-06  0.137056E-06
  0.159351E-06  0.183401E-06  0.187815E-06  0.166250E-06
  0.127481E-06  0.853593E-07  0.502831E-07  0.262125E-07
  0.121462E-07  0.501925E-08  0.185420E-08  0.613415E-09
  0.181954E-09  0.130764E-09  0.444667E-09  0.135551E-08
  0.370149E-08  0.904375E-08  0.197384E-07  0.384026E-07
  0.664365E-07  0.101950E-06  0.138620E-06  0.167655E-06
  0.183490E-06  0.189268E-06  0.193746E-06  0.199795E-06
  0.203480E-06  0.204118E-06  0.203372E-06  0.199689E-06
  0.193582E-06  0.189092E-06  0.183706E-06  0.168579E-06
  0.140126E-06  0.103629E-06  0.678993E-07  0.394574E-07
  0.203864E-07  0.938858E-08  0.386222E-08  0.142161E-08
  0.468774E-09  0.138589E-09  0.917221E-10  0.313600E-09
  0.960955E-09  0.263870E-08  0.648964E-08  0.142849E-07
  0.281193E-07  0.494773E-07  0.778726E-07  0.110048E-06
  0.141053E-06  0.167308E-06  0.188914E-06  0.207574E-06
  0.222557E-06  0.231601E-06  0.234447E-06  0.231778E-06
  0.222958E-06  0.208172E-06  0.189671E-06  0.168299E-06
  0.142344E-06  0.111529E-06  0.793011E-07  0.506387E-07
  0.289260E-07  0.147696E-07  0.674416E-08  0.275631E-08
  0.100905E-08  0.331077E-09  0.973830E-10  0.589471E-10
  0.203067E-09  0.626695E-09  0.173360E-08  0.429963E-08
  0.956286E-08  0.190812E-07  0.341992E-07  0.552196E-07
  0.808220E-07  0.108436E-06  0.135564E-06  0.160722E-06
  0.182741E-06  0.199776E-06  0.210162E-06  0.213630E-06
  0.210458E-06  0.200381E-06  0.183619E-06  0.161798E-06
  0.136779E-06  0.109734E-06  0.820980E-07  0.563350E-07
  0.350535E-07  0.196531E-07  0.989861E-08  0.447323E-08
  0.181299E-08  0.658932E-09  0.214723E-09  0.627097E-10
  0.345006E-10  0.120044E-09  0.373868E-09  0.104365E-08
  0.261408E-08  0.588133E-08  0.119030E-07  0.217217E-07
  0.358900E-07  0.540527E-07  0.749490E-07  0.968682E-07
  0.118068E-06  0.136757E-06  0.151131E-06  0.159954E-06
  0.162958E-06  0.160239E-06  0.151697E-06  0.137568E-06
  0.119045E-06  0.979254E-07  0.759993E-07  0.550081E-07
  0.366742E-07  0.222954E-07  0.122750E-07  0.609488E-08
  0.272277E-08  0.109281E-08  0.393664E-09  0.127159E-09
  0.367867E-10  0.182818E-10  0.644398E-10  0.202976E-09
  0.572707E-09  0.145033E-08  0.330266E-08  0.677789E-08
  0.125746E-07  0.211841E-07  0.326168E-07  0.462841E-07
  0.611089E-07  0.757293E-07  0.886747E-07  0.986197E-07
  0.104748E-06  0.106852E-06  0.104958E-06  0.990338E-07
  0.892629E-07  0.764328E-07  0.618546E-07  0.469998E-07
  0.332413E-07  0.216765E-07  0.129229E-07  0.699792E-08
  0.342651E-08  0.151243E-08  0.600477E-09  0.214062E-09
  0.683965E-10  0.195461E-10  0.871592E-11  0.312435E-10
  0.997955E-10  0.285113E-09  0.730741E-09  0.168468E-08
  0.350361E-08  0.659584E-08  0.112913E-07  0.176800E-07
  0.255018E-07  0.341482E-07  0.427632E-07  0.504083E-07
  0.562781E-07  0.599006E-07  0.611488E-07  0.600298E-07
  0.565315E-07  0.507667E-07  0.431897E-07  0.345955E-07
  0.259231E-07  0.180386E-07  0.115668E-07  0.678608E-08
  0.362134E-08  0.174983E-08  0.762972E-09  0.299365E-09
  0.105434E-09  0.332403E-10  0.934970E-11  0.371044E-11
  0.136026E-10  0.442170E-10  0.128199E-09  0.332950E-09
  0.777377E-09  0.163736E-08  0.312287E-08  0.541747E-08
  0.859405E-08  0.125444E-07  0.169614E-07  0.213875E-07
  0.253184E-07  0.283332E-07  0.301939E-07  0.308365E-07
  0.302622E-07  0.284668E-07  0.255069E-07  0.216112E-07
  0.171946E-07  0.127616E-07  0.877613E-08  0.555489E-08
  0.321611E-08  0.169413E-08  0.808349E-09  0.348082E-09
  0.134819E-09  0.468110E-10  0.145135E-10  0.399722E-11
  0.139579E-11  0.528011E-11  0.175605E-10  0.518346E-10
  0.136663E-09  0.323387E-09  0.689698E-09  0.133123E-08
  0.233581E-08  0.374453E-08  0.551544E-08  0.751020E-08
  0.951553E-08  0.112961E-07  0.126596E-07  0.135002E-07
  0.137908E-07  0.135318E-07  0.127213E-07  0.113831E-07
  0.961859E-08  0.761722E-08  0.561443E-08  0.382663E-08
  0.239699E-08  0.137219E-08  0.714310E-09  0.336649E-09
  0.143068E-09  0.546069E-10  0.186358E-10  0.565399E-11
  0.151231E-11  0.456369E-12  0.180919E-11  0.620936E-11
  0.187541E-10  0.503407E-10  0.120908E-09  0.261218E-09
  0.510033E-09  0.904183E-09  0.146254E-08  0.217012E-08
  0.297120E-08  0.377804E-08  0.449390E-08  0.504099E-08