<?xml version="1.0"?>
 <VTKFile type="ImageData" version="0.1" byte_order="LittleEndian">
   <ImageData WholeExtent="           0          32           0          32           0          32 " Origin="  -8.0000000000000000       -8.0000000000000000       -8.0000000000000000      " Spacing="  0.50000000000000000       0.50000000000000000       0.50000000000000000      ">
   <Piece Extent="           0          32           0          32           0          32 ">
   <PointData Scalars="scalars">
   <DataArray Name="scalars" type="Float64" NumberOfComponents="1" Format="ascii">
  0.490677E-13
  0.145884E-12  0.397074E-12  0.990360E-12  0.226662E-11
  0.476694E-11  0.921870E-11  0.164144E-10  0.269492E-10
  0.408813E-10  0.574678E-10  0.751612E-10  0.919619E-10
  0.106015E-09  0.116159E-09  0.122102E-09  0.124091E-09
  0.122322E-09  0.116635E-09  0.106777E-09  0.929780E-10
  0.763278E-10  0.586385E-10  0.419190E-10  0.277669E-10
  0.169900E-10  0.958178E-11  0.497257E-11  0.237128E-11
  0.103808E-11  0.416804E-12  0.153191E-12  0.514998E-13
  0.140822E-12  0.422211E-12  0.115878E-11  0.291590E-11
  0.673436E-11  0.142844E-10  0.278566E-10  0.500053E-10
  0.827624E-10  0.126579E-09  0.179449E-09  0.236783E-09
  0.292335E-09  0.339937E-09  0.375230E-09  0.396435E-09
  0.403618E-09  0.397118E-09  0.376682E-09  0.342209E-09
  0.295308E-09  0.240145E-09  0.182786E-09  0.129514E-09
  0.850621E-10  0.516169E-10  0.288692E-10  0.148555E-10
  0.702374E-11  0.304767E-11  0.121271E-11  0.442034E-12
  0.147362E-12  0.370107E-12  0.111891E-11  0.309829E-11
  0.786396E-11  0.183061E-10  0.391163E-10  0.767969E-10
  0.138715E-09  0.230943E-09  0.355308E-09  0.506869E-09
  0.673328E-09  0.837210E-09  0.980332E-09  0.108865E-08
  0.115496E-08  0.117763E-08  0.115693E-08  0.109278E-08
  0.986625E-09  0.845269E-09  0.682294E-09  0.515665E-09
  0.362983E-09  0.236927E-09  0.142895E-09  0.794155E-10
  0.405889E-10  0.190497E-10  0.820105E-11  0.323543E-11
  0.116896E-11  0.386492E-12  0.891530E-12  0.271983E-11
  0.759696E-11  0.194322E-10  0.455474E-10  0.978936E-10
  0.193115E-09  0.350185E-09  0.584990E-09  0.902995E-09
  0.129295E-08  0.172514E-08  0.215593E-08  0.253787E-08
  0.283164E-08  0.301402E-08  0.307689E-08  0.301927E-08
  0.284236E-08  0.255386E-08  0.217599E-08  0.174710E-08
  0.131426E-08  0.921473E-09  0.599353E-09  0.360205E-09
  0.199389E-09  0.101418E-09  0.473239E-10  0.202351E-10
  0.792220E-11  0.283803E-11  0.929878E-12  0.197137E-11
  0.607028E-11  0.170930E-10  0.440287E-10  0.103778E-09
  0.223957E-09  0.442942E-09  0.804251E-09  0.134413E-08
  0.207531E-08  0.297365E-08  0.397442E-08  0.498092E-08
  0.588404E-08  0.658775E-08  0.702956E-08  0.718282E-08
  0.704211E-08  0.661296E-08  0.592089E-08  0.502629E-08
  0.402338E-08  0.302076E-08  0.211602E-08  0.137579E-08
  0.826386E-09  0.456834E-09  0.231775E-09  0.107720E-09
  0.458081E-10  0.178119E-10  0.633012E-11  0.205530E-11
  0.400677E-11  0.124488E-10  0.353239E-10  0.915446E-10
  0.216692E-09  0.468673E-09  0.927137E-09  0.168072E-08
  0.280077E-08  0.430946E-08  0.615654E-08  0.821517E-08
  0.102969E-07  0.121824E-07  0.136674E-07  0.146083E-07
  0.149363E-07  0.146349E-07  0.137202E-07  0.122583E-07
  0.103888E-07  0.831339E-08  0.625068E-08  0.439098E-08
  0.286452E-08  0.172560E-08  0.955482E-09  0.484702E-09
  0.224798E-09  0.952079E-10  0.368032E-10  0.129823E-10
  0.417852E-11  0.749321E-11  0.234850E-10  0.671217E-10
  0.174865E-09  0.415151E-09  0.898332E-09  0.177328E-08
  0.319960E-08  0.529589E-08  0.808416E-08  0.114600E-07
  0.151997E-07  0.189854E-07  0.224391E-07  0.251851E-07
  0.269384E-07  0.275522E-07  0.269879E-07  0.252822E-07
  0.225768E-07  0.191503E-07  0.153748E-07  0.116283E-07
  0.823132E-08  0.541252E-08  0.328281E-08  0.182643E-08
  0.928646E-09  0.430570E-09  0.181857E-09  0.699493E-10
  0.245047E-10  0.782109E-11  0.129078E-10  0.408113E-10
  0.117444E-09  0.307377E-09  0.731201E-09  0.158067E-08
  0.310693E-08  0.556292E-08  0.910700E-08  0.137164E-07
  0.191722E-07  0.251160E-07  0.311006E-07  0.365891E-07
  0.409951E-07  0.438298E-07  0.448252E-07  0.439087E-07
  0.411489E-07  0.368049E-07  0.313567E-07  0.253883E-07
  0.194377E-07  0.139541E-07  0.930015E-08  0.570377E-08
  0.319845E-08  0.163351E-08  0.758302E-09  0.319733E-09
  0.122457E-09  0.426219E-10  0.134904E-10  0.205175E-10
  0.654454E-10  0.189608E-09  0.498384E-09  0.118731E-08
  0.256191E-08  0.500679E-08  0.887326E-08  0.143078E-07
  0.211282E-07  0.288738E-07  0.370121E-07  0.450615E-07
  0.524689E-07  0.584934E-07  0.624082E-07  0.637872E-07
  0.625133E-07  0.586970E-07  0.527514E-07  0.453949E-07
  0.373717E-07  0.292377E-07  0.214695E-07  0.145971E-07
  0.909121E-08  0.515171E-08  0.264690E-08  0.123135E-08
  0.518599E-09  0.197844E-09  0.684285E-10  0.214790E-10
  0.301641E-10  0.970886E-10  0.283227E-09  0.747757E-09
  0.178413E-08  0.384229E-08  0.746261E-08  0.130730E-07
  0.206973E-07  0.297790E-07  0.393763E-07  0.487046E-07
  0.574900E-07  0.655815E-07  0.723415E-07  0.768250E-07
  0.784105E-07  0.769348E-07  0.725526E-07  0.658684E-07
  0.578272E-07  0.490866E-07  0.397999E-07  0.302136E-07
  0.210912E-07  0.133832E-07  0.767465E-08  0.396885E-08
  0.185046E-08  0.778420E-09  0.295779E-09  0.101650E-09
  0.316379E-10  0.411505E-10  0.133697E-09  0.392861E-09
  0.104229E-08  0.249225E-08  0.536117E-08  0.103568E-07
  0.179427E-07  0.278702E-07  0.389164E-07  0.492817E-07
  0.577204E-07  0.644798E-07  0.706254E-07  0.762386E-07
  0.802118E-07  0.816371E-07  0.802866E-07  0.763768E-07
  0.707956E-07  0.646778E-07  0.580007E-07  0.496872E-07
  0.394116E-07  0.283645E-07  0.183528E-07  0.106457E-07
  0.553663E-08  0.258517E-08  0.108553E-08  0.410641E-09
  0.140178E-09  0.432502E-10  0.523311E-10  0.171673E-09
  0.508323E-09  0.135605E-08  0.325258E-08  0.699843E-08
  0.134729E-07  0.231397E-07  0.353556E-07  0.479698E-07
  0.579202E-07  0.630717E-07  0.642249E-07  0.647227E-07
  0.666207E-07  0.687539E-07  0.695875E-07  0.687502E-07
  0.665916E-07  0.646206E-07  0.641048E-07  0.631112E-07
  0.582275E-07  0.484899E-07  0.359396E-07  0.236505E-07
  0.138424E-07  0.722621E-08  0.337427E-08  0.141298E-08
  0.531810E-09  0.180256E-09  0.551178E-10  0.624196E-10
  0.206747E-09  0.616945E-09  0.165556E-08  0.398656E-08
  0.859184E-08  0.165205E-07  0.282271E-07  0.426424E-07
  0.566110E-07  0.656290E-07  0.662787E-07  0.593070E-07
  0.505579E-07  0.461043E-07  0.454190E-07  0.454127E-07
  0.453181E-07  0.458423E-07  0.500479E-07  0.587500E-07
  0.660164E-07  0.658089E-07  0.571395E-07  0.433063E-07
  0.288327E-07  0.169674E-07  0.887025E-08  0.413619E-08
  0.172582E-08  0.645998E-09  0.217383E-09  0.658786E-10
  0.703888E-10  0.235221E-09  0.707016E-09  0.190811E-08
  0.461380E-08  0.996836E-08  0.191768E-07  0.326958E-07
  0.490940E-07  0.643503E-07  0.727193E-07  0.696221E-07
  0.552997E-07  0.364947E-07  0.235424E-07  0.197752E-07
  0.190846E-07  0.196083E-07  0.230319E-07  0.355598E-07
  0.543743E-07  0.691240E-07  0.728014E-07  0.648892E-07
  0.498265E-07  0.333824E-07  0.196899E-07  0.102901E-07
  0.478739E-08  0.198979E-08  0.740845E-09  0.247619E-09
  0.744261E-10  0.757469E-10  0.254933E-09  0.770748E-09
  0.208983E-08  0.507120E-08  0.109831E-07  0.211533E-07
  0.360506E-07  0.539902E-07  0.703393E-07  0.785102E-07
  0.732470E-07  0.546955E-07  0.299595E-07  0.979017E-08
  0.262327E-08  0.170231E-08  0.250207E-08  0.907773E-08
  0.288280E-07  0.535936E-07  0.726187E-07  0.785353E-07
  0.708889E-07  0.547726E-07  0.367956E-07  0.217142E-07
  0.113363E-07  0.526218E-08  0.217983E-08  0.808055E-09
  0.268619E-09  0.802081E-10  0.785116E-10  0.265360E-09
  0.805076E-09  0.218904E-08  0.532348E-08  0.115474E-07
  0.222596E-07  0.379394E-07  0.567643E-07  0.737687E-07
  0.819193E-07  0.756624E-07  0.552922E-07  0.285791E-07
  0.704980E-08 -0.259058E-08 -0.230361E-08 -0.268434E-08
  0.639386E-08  0.274168E-07  0.541203E-07  0.749702E-07
  0.819133E-07  0.743226E-07  0.575725E-07  0.387154E-07
  0.228462E-07  0.119175E-07  0.552392E-08  0.228359E-08
  0.844302E-09  0.279763E-09  0.832119E-10  0.788922E-10
  0.266797E-09  0.809817E-09  0.220278E-08  0.535853E-08
  0.116259E-07  0.224138E-07  0.382025E-07  0.571490E-07
  0.742413E-07  0.823821E-07  0.759800E-07  0.553591E-07
  0.283992E-07  0.672974E-08 -0.232531E-08  0.130336E-08
 -0.240221E-08  0.606206E-08  0.272280E-07  0.541759E-07
  0.752781E-07  0.823711E-07  0.747945E-07  0.579594E-07
  0.389817E-07  0.230033E-07  0.119981E-07  0.556018E-08
  0.229797E-08  0.849343E-09  0.281326E-09  0.836406E-10
  0.769351E-10  0.259332E-09  0.785077E-09  0.213096E-08
  0.517533E-08  0.112152E-07  0.216068E-07  0.368218E-07
  0.551156E-07  0.717144E-07  0.798433E-07  0.741209E-07
  0.547526E-07  0.291026E-07  0.810630E-08 -0.109811E-08
 -0.818496E-09 -0.123274E-08  0.737814E-08  0.279450E-07
  0.536172E-07  0.734652E-07  0.798548E-07  0.722638E-07
  0.559061E-07  0.375773E-07  0.221769E-07  0.115747E-07
  0.537008E-08  0.222294E-08  0.823307E-09  0.273405E-09
  0.815432E-10  0.724574E-10  0.242666E-09  0.730748E-09
  0.197514E-08  0.478140E-08  0.103383E-07  0.198938E-07
  0.339059E-07  0.508453E-07  0.664595E-07  0.746834E-07
  0.706739E-07  0.546021E-07  0.333072E-07  0.176728E-07
  0.130384E-07  0.122404E-07  0.128498E-07  0.170512E-07
  0.322517E-07  0.535906E-07  0.701211E-07  0.747418E-07
  0.669992E-07  0.515925E-07  0.346109E-07  0.204226E-07
  0.106709E-07  0.496144E-08  0.206019E-08  0.766140E-09
  0.255718E-09  0.767417E-10  0.653330E-10  0.216928E-09
  0.648662E-09  0.174354E-08  0.420340E-08  0.906481E-08
  0.174282E-07  0.297448E-07  0.448146E-07  0.591755E-07
  0.678859E-07  0.671223E-07  0.575012E-07  0.454185E-07
  0.385384E-07  0.369363E-07  0.366778E-07  0.367935E-07
  0.381702E-07  0.447379E-07  0.567935E-07  0.667670E-07
  0.680268E-07  0.597038E-07  0.454985E-07  0.303756E-07
  0.178966E-07  0.935811E-08  0.436185E-08  0.181839E-08
  0.679842E-09  0.228450E-09  0.691262E-10  0.558617E-10
  0.183692E-09  0.544992E-09  0.145607E-08  0.349580E-08
  0.752333E-08  0.144720E-07  0.248002E-07  0.377224E-07
  0.507583E-07  0.603837E-07  0.640888E-07  0.627742E-07
  0.606753E-07  0.608672E-07  0.621946E-07  0.627692E-07
  0.621503E-07  0.607505E-07  0.604349E-07  0.625068E-07
  0.640255E-07  0.606467E-07  0.512788E-07  0.383304E-07
  0.253408E-07  0.148668E-07  0.776853E-08  0.362778E-08
  0.151836E-08  0.570961E-09  0.193309E-09  0.590371E-10
  0.449078E-10  0.146215E-09  0.430386E-09  0.114323E-08
  0.273514E-08  0.588172E-08  0.113447E-07  0.195890E-07
  0.302465E-07  0.418161E-07  0.521330E-07  0.597292E-07
  0.650695E-07  0.698443E-07  0.745718E-07  0.780939E-07
  0.793679E-07  0.781436E-07  0.746581E-07  0.699348E-07
  0.651771E-07  0.599415E-07  0.525119E-07  0.423208E-07
  0.307692E-07  0.200311E-07  0.116600E-07  0.607517E-08
  0.283865E-08  0.119197E-08  0.450706E-09  0.153753E-09
  0.474046E-10  0.337134E-10  0.108708E-09  0.317577E-09
  0.839194E-09  0.200264E-08  0.430945E-08  0.835231E-08
  0.145742E-07  0.229265E-07  0.326707E-07  0.426356E-07
  0.519258E-07  0.604085E-07  0.682146E-07  0.748412E-07
  0.792850E-07  0.808590E-07  0.793889E-07  0.750388E-07
  0.684785E-07  0.607184E-07  0.522903E-07  0.430627E-07
  0.331286E-07  0.233533E-07  0.149164E-07  0.858944E-08
  0.445271E-08  0.207867E-08  0.874858E-09  0.332436E-09
  0.114228E-09  0.355473E-10  0.235143E-10  0.751180E-10
  0.217886E-09  0.573088E-09  0.136520E-08  0.294274E-08
  0.573801E-08  0.101298E-07  0.162390E-07  0.237903E-07
  0.322009E-07  0.408698E-07  0.493506E-07  0.571568E-07
  0.635396E-07  0.677024E-07  0.691704E-07  0.678152E-07
  0.637563E-07  0.574544E-07  0.497000E-07  0.412492E-07
  0.325918E-07  0.241647E-07  0.165623E-07  0.103770E-07
  0.590454E-08  0.304169E-08  0.141723E-08  0.597384E-09
  0.227997E-09  0.788786E-10  0.247675E-10  0.151810E-10
  0.480607E-10  0.138447E-09  0.362548E-09  0.862359E-09
  0.186242E-08  0.365333E-08  0.651973E-08  0.106239E-07
  0.159077E-07  0.220921E-07  0.287672E-07  0.354585E-07
  0.415991E-07  0.465415E-07  0.497271E-07  0.508475E-07
  0.498190E-07  0.467189E-07  0.418452E-07  0.357480E-07
  0.290742E-07  0.223927E-07  0.161793E-07  0.108470E-07
  0.668432E-08  0.376156E-08  0.192576E-08  0.895367E-09
  0.377893E-09  0.144826E-09  0.504365E-10  0.159753E-10
  0.904778E-11  0.283907E-10  0.812221E-10  0.211729E-09
  0.502701E-09  0.108708E-08  0.214266E-08  0.385678E-08
  0.636271E-08  0.967491E-08  0.136604E-07  0.180559E-07
  0.224989E-07  0.265568E-07  0.297902E-07  0.318583E-07
  0.325838E-07  0.319196E-07  0.299092E-07  0.267234E-07
  0.226959E-07  0.182634E-07  0.138595E-07  0.984945E-08
  0.650189E-08  0.395693E-08  0.220733E-08  0.112446E-08
  0.522040E-09  0.220688E-09  0.849447E-10  0.297799E-10
  0.951415E-11  0.496854E-11  0.154528E-10  0.438934E-10
  0.113842E-09  0.269573E-09  0.582952E-09  0.115230E-08
  0.208591E-08  0.346921E-08  0.532603E-08  0.759252E-08
  0.101146E-07  0.126655E-07  0.149803E-07  0.168077E-07
  0.179680E-07  0.183737E-07  0.180028E-07  0.168758E-07
  0.150764E-07  0.127802E-07  0.102356E-07  0.770787E-08
  0.542581E-08  0.354748E-08  0.214137E-08  0.118767E-08
  0.603230E-09  0.280011E-09  0.118669E-09  0.459003E-10
  0.162040E-10  0.522192E-11  0.251012E-11  0.773791E-11
  0.218138E-10  0.562468E-10  0.132680E-09  0.286445E-09
  0.566519E-09  0.102818E-08  0.171710E-08  0.264888E-08
  0.379280E-08  0.506753E-08  0.635165E-08  0.750696E-08
  0.840994E-08  0.897845E-08  0.917632E-08  0.899557E-08
  0.844370E-08  0.755527E-08  0.640999E-08  0.512961E-08
  0.385203E-08  0.269992E-08  0.175684E-08  0.105612E-08
  0.584217E-09  0.296541E-09  0.137864E-09  0.586442E-10
  0.228128E-10  0.811338E-11  0.263749E-11  0.116545E-11
  0.356018E-11  0.995701E-11  0.255024E-10  0.598476E-10
  0.128759E-09  0.254195E-09  0.461177E-09  0.770665E-09
  0.118997E-08  0.170464E-08  0.227609E-08  0.284735E-08
  0.335574E-08  0.374838E-08  0.399307E-08  0.407774E-08
  0.400045E-08  0.376311E-08  0.337716E-08  0.287364E-08
  0.230440E-08  0.173184E-08  0.121346E-08  0.788936E-09
  0.473990E-09  0.262294E-09  0.133373E-09  0.622177E-10
  0.266005E-10  0.104163E-10  0.373370E-11  0.122471E-11
  0.496757E-12  0.150383E-11  0.416999E-11  0.106008E-10
  0.247173E-10  0.528999E-10  0.104014E-09  0.188136E-09
  0.313636E-09  0.483182E-09  0.690308E-09  0.918543E-09
  0.114422E-08  0.134232E-08  0.149310E-08  0.158587E-08
  0.161772E-08  0.158867E-08  0.149880E-08  0.135079E-08
  0.115481E-08  0.930130E-09  0.701566E-09  0.492967E-09
  0.321274E-09  0.193501E-09  0.107409E-09  0.548377E-10
  0.257152E-10  0.110649E-10  0.436508E-11  0.157800E-11
  0.522276E-12  0.194119E-12  0.582611E-12  0.160112E-11
  0.403661E-11  0.934135E-11  0.198562E-10  0.388064E-10
  0.698139E-10  0.115804E-09  0.177520E-09  0.252280E-09
  0.333744E-09  0.413149E-09  0.481670E-09  0.532866E-09
  0.563849E-09  0.574382E-09  0.564802E-09  0.534842E-09
  0.484673E-09  0.416997E-09  0.338035E-09  0.256507E-09
  0.181230E-09  0.118719E-09  0.718711E-10  0.401136E-10
  0.206051E-10  0.972872E-11  0.421769E-11  0.167769E-11
  0.611926E-12  0.204278E-12  0.694414E-13  0.206651E-12
  0.563294E-12  0.140735E-11  0.322897E-11  0.680807E-11
  0.132027E-10  0.235767E-10  0.388262E-10  0.590866E-10
  0.833380E-10  0.109379E-09  0.134306E-09  0.155357E-09
  0.170720E-09  0.179814E-09  0.182864E-09  0.180104E-09
  0.171338E-09  0.156326E-09  0.135577E-09  0.110826E-09
  0.847864E-10  0.603724E-10  0.398452E-10  0.243008E-10
  0.136655E-10  0.707468E-11  0.336765E-11  0.147257E-11
  0.591065E-12  0.217353E-12  0.731774E-13  0.227217E-13
  0.670583E-13  0.181234E-12  0.448873E-12  0.102043E-11
  0.213184E-11  0.409706E-11  0.725026E-11  0.118316E-10
  0.178395E-10  0.249222E-10  0.323887E-10  0.393757E-10
  0.451170E-10  0.491778E-10  0.515091E-10  0.522772E-10
  0.515896E-10  0.493543E-10  0.454024E-10  0.397608E-10
  0.328365E-10  0.253776E-10  0.182487E-10  0.121590E-10
  0.748472E-11  0.424793E-11  0.221930E-11  0.106622E-11
  0.470553E-12  0.190522E-12  0.706620E-13  0.239888E-13
  0.230627E-12  0.680472E-12  0.183648E-11  0.454083E-11
  0.103009E-10  0.214631E-10  0.411254E-10  0.725594E-10
  0.118069E-09  0.177569E-09  0.247552E-09  0.321234E-09
  0.390182E-09  0.446902E-09  0.487094E-09  0.510212E-09
  0.517852E-09  0.511076E-09  0.489022E-09  0.450070E-09
  0.394500E-09  0.326273E-09  0.252673E-09  0.182152E-09
  0.121710E-09  0.751401E-10  0.427632E-10  0.223958E-10
  0.107781E-10  0.476034E-11  0.192729E-11  0.714227E-12
  0.241903E-12  0.656865E-12  0.195276E-11  0.531388E-11
  0.132538E-10  0.303287E-10  0.637471E-10  0.123212E-09
  0.219287E-09  0.359981E-09  0.546329E-09  0.768938E-09
  0.100784E-08  0.123675E-08  0.143057E-08  0.157248E-08
  0.165674E-08  0.168504E-08  0.165940E-08  0.157827E-08
  0.143986E-08  0.124917E-08  0.102213E-08  0.783304E-09
  0.559091E-09  0.370066E-09  0.226406E-09  0.127713E-09
  0.663001E-10  0.316293E-10  0.138489E-10  0.555849E-11
  0.204308E-11  0.686760E-12  0.171167E-11  0.513118E-11
  0.140833E-10  0.354188E-10  0.817067E-10  0.173061E-09
  0.336931E-09  0.603797E-09  0.997887E-09  0.152488E-08
  0.216188E-08  0.285575E-08  0.353319E-08  0.411973E-08
  0.455983E-08  0.482708E-08  0.491793E-08  0.483476E-08
  0.457616E-08  0.414522E-08  0.356647E-08  0.289335E-08
  0.219923E-08  0.155780E-08  0.102376E-08  0.622000E-09
  0.348407E-09  0.179553E-09  0.850014E-10  0.369195E-10
  0.146965E-10  0.535586E-11  0.178543E-11  0.408767E-11
  0.123625E-10  0.342162E-10  0.867363E-10  0.201533E-09
  0.429567E-09  0.840867E-09  0.151395E-08  0.251272E-08
  0.385602E-08  0.549241E-08  0.729447E-08  0.907948E-08
  0.106524E-07  0.118549E-07  0.125976E-07  0.128524E-07
  0.126181E-07  0.118974E-07  0.107169E-07  0.916172E-08
  0.738572E-08  0.558196E-08  0.393438E-08  0.257411E-08
  0.155706E-08  0.868023E-09  0.444906E-09  0.209301E-09
  0.902625E-10  0.356502E-10  0.128847E-10  0.425769E-11
  0.895900E-11  0.273375E-10  0.762910E-10  0.194812E-09
  0.455407E-09  0.975265E-09  0.191538E-08  0.345582E-08
  0.574320E-08  0.882344E-08  0.125880E-07  0.167615E-07
  0.209398E-07  0.246727E-07  0.275696E-07  0.293819E-07
  0.300085E-07  0.294312E-07  0.276698E-07  0.248212E-07
  0.211250E-07  0.169638E-07  0.127845E-07  0.899467E-08
  0.587729E-08  0.355014E-08  0.197490E-08  0.100892E-08
  0.472448E-09  0.202534E-09  0.794214E-10  0.284719E-10
  0.932612E-11  0.180410E-10  0.555518E-10  0.156276E-09
  0.401694E-09  0.943612E-09  0.202673E-08  0.398434E-08
  0.718303E-08  0.119124E-07  0.182531E-07  0.259843E-07
  0.345699E-07  0.432235E-07  0.510394E-07  0.571786E-07
  0.610585E-07  0.624081E-07  0.611641E-07  0.573898E-07
  0.513460E-07  0.435989E-07  0.349744E-07  0.263752E-07
  0.185941E-07  0.121806E-07  0.737288E-08  0.410482E-08
  0.209515E-08  0.978335E-09  0.417436E-09  0.162649E-09
  0.578549E-10  0.187833E-10  0.334222E-10  0.103863E-09
  0.294453E-09  0.761345E-09  0.179512E-08  0.386046E-08
  0.757891E-08  0.136103E-07  0.224359E-07  0.341309E-07
  0.482468E-07  0.638431E-07  0.795977E-07  0.939445E-07
  0.105333E-06  0.112594E-06  0.115132E-06  0.112792E-06
  0.105724E-06  0.945028E-07  0.802712E-07  0.645634E-07
  0.489438E-07  0.347443E-07  0.229246E-07  0.139606E-07
  0.780358E-08  0.398903E-08  0.186070E-08  0.791161E-09
  0.306533E-09  0.108225E-09  0.348253E-10  0.570421E-10
  0.178926E-09  0.511112E-09  0.132869E-08  0.314162E-08
  0.675505E-08  0.132158E-07  0.235680E-07  0.384529E-07
  0.577541E-07  0.805451E-07  0.105332E-06  0.130257E-06
  0.153096E-06  0.171415E-06  0.183190E-06  0.187320E-06
  0.183508E-06  0.172037E-06  0.153973E-06  0.131306E-06
  0.106452E-06  0.816443E-07  0.587434E-07  0.392605E-07
  0.241592E-07  0.136012E-07  0.697819E-08  0.325633E-08
  0.138108E-08  0.532394E-09  0.186619E-09  0.595167E-10
  0.898489E-10  0.284549E-09  0.819023E-09  0.214022E-08
  0.507231E-08  0.108953E-07  0.212101E-07  0.374650E-07
  0.602451E-07  0.887642E-07  0.121093E-06  0.155023E-06
  0.188568E-06  0.219433E-06  0.244529E-06  0.260831E-06
  0.266566E-06  0.261257E-06  0.245357E-06  0.220586E-06
  0.189935E-06  0.156505E-06  0.122601E-06  0.901848E-07
  0.614541E-07  0.383789E-07  0.218191E-07  0.112532E-07
  0.525809E-08  0.222560E-08  0.853840E-09  0.297163E-09
  0.939131E-10  0.130927E-09  0.418803E-09  0.121497E-08
  0.319199E-08  0.758354E-08  0.162718E-07  0.315043E-07
  0.550436E-07  0.869542E-07  0.124888E-06  0.164913E-06
  0.203790E-06  0.240414E-06  0.274165E-06  0.302372E-06
  0.321075E-06  0.327685E-06  0.321522E-06  0.303233E-06
  0.275340E-06  0.241799E-06  0.205368E-06  0.166671E-06
  0.126699E-06  0.886013E-07  0.563434E-07  0.323946E-07
  0.168040E-07  0.786278E-08  0.332120E-08  0.126789E-08
  0.438033E-09  0.137137E-09  0.177094E-09  0.572442E-09
  0.167456E-08  0.442546E-08  0.105466E-07  0.226225E-07
  0.435971E-07  0.753770E-07  0.116887E-06  0.162992E-06
  0.206192E-06  0.241334E-06  0.269504E-06  0.295163E-06
  0.318620E-06  0.335225E-06  0.341177E-06  0.335529E-06
  0.319184E-06  0.295859E-06  0.270317E-06  0.242494E-06
  0.207881E-06  0.165062E-06  0.118957E-06  0.770970E-07
  0.448100E-07  0.233599E-07  0.109375E-07  0.460747E-08
  0.174941E-08  0.599724E-09  0.185927E-09  0.223390E-09
  0.729988E-09  0.215425E-08  0.573044E-08  0.137115E-07
  0.294417E-07  0.565814E-07  0.970386E-07  0.148089E-06
  0.200730E-06  0.242185E-06  0.263591E-06  0.268349E-06
  0.270439E-06  0.278403E-06  0.287339E-06  0.290827E-06
  0.287320E-06  0.278277E-06  0.270009E-06  0.267846E-06
  0.263759E-06  0.243476E-06  0.202913E-06  0.150541E-06
  0.991837E-07  0.581339E-07  0.303991E-07  0.142232E-07
  0.596994E-08  0.225307E-08  0.766097E-09  0.235109E-09
  0.264468E-09  0.873686E-09  0.260135E-08  0.696762E-08
  0.167516E-07  0.360551E-07  0.692509E-07  0.118214E-06
  0.178448E-06  0.236758E-06  0.274340E-06  0.276959E-06
  0.247780E-06  0.211237E-06  0.192664E-06  0.189822E-06
  0.189801E-06  0.189400E-06  0.191572E-06  0.209114E-06
  0.245466E-06  0.275880E-06  0.275112E-06  0.238988E-06
  0.181242E-06  0.120761E-06  0.711301E-07  0.372260E-07
  0.173810E-07  0.726323E-08  0.272361E-08  0.918440E-09
  0.279020E-09  0.296296E-09  0.988766E-09  0.296856E-08
  0.800378E-08  0.193373E-07  0.417503E-07  0.802714E-07
  0.136794E-06  0.205318E-06  0.269035E-06  0.303948E-06
  0.290951E-06  0.231073E-06  0.152499E-06  0.983937E-07
  0.826561E-07  0.797705E-07  0.819601E-07  0.962681E-07
  0.148610E-06  0.227231E-06  0.288900E-06  0.304325E-06
  0.271320E-06  0.208408E-06  0.139685E-06  0.824309E-07
  0.431044E-07  0.200679E-07  0.834764E-08  0.311098E-08
  0.104097E-08  0.313294E-09  0.317246E-09  0.106733E-08
  0.322595E-08  0.874462E-08  0.212148E-07  0.459367E-07
  0.884568E-07  0.150729E-06  0.225701E-06  0.294014E-06
  0.328138E-06  0.306124E-06  0.228589E-06  0.125220E-06
  0.409371E-07  0.109707E-07  0.712330E-08  0.104630E-07
  0.379713E-07  0.120514E-06  0.224016E-06  0.303538E-06
  0.328286E-06  0.296352E-06  0.229006E-06  0.153869E-06
  0.908193E-07  0.474239E-07  0.220189E-07  0.912365E-08
  0.338310E-08  0.112499E-08  0.336045E-09  0.327846E-09
  0.110839E-08  0.336348E-08  0.914689E-08  0.222466E-07
  0.482590E-07  0.930313E-07  0.158567E-06  0.237245E-06
  0.308312E-06  0.342377E-06  0.316231E-06  0.231101E-06
  0.119461E-06  0.294815E-07 -0.108162E-07 -0.962606E-08
 -0.112053E-07  0.267526E-07  0.114627E-06  0.226238E-06
  0.313381E-06  0.342399E-06  0.310671E-06  0.240660E-06
  0.161839E-06  0.955024E-07  0.498180E-07  0.230907E-07
  0.954518E-08  0.352877E-08  0.116911E-08  0.347667E-09
  0.329287E-09  0.111400E-08  0.338232E-08  0.920224E-08
  0.223891E-07  0.485809E-07  0.936671E-07  0.159655E-06
  0.238843E-06  0.310278E-06  0.344307E-06  0.317558E-06
  0.231382E-06  0.118711E-06  0.281444E-07 -0.970314E-08
  0.543718E-08 -0.100184E-07  0.253670E-07  0.113841E-06
  0.226473E-06  0.314668E-06  0.344306E-06  0.312633E-06
  0.242266E-06  0.162939E-06  0.961495E-07  0.501480E-07
  0.232383E-07  0.960320E-08  0.354889E-08  0.117526E-08
  0.349321E-09  0.321820E-09  0.108466E-08  0.328324E-08
  0.891094E-08  0.216394E-07  0.468892E-07  0.903272E-07
  0.153921E-06  0.230374E-06  0.299737E-06  0.333697E-06
  0.309776E-06  0.228836E-06  0.121648E-06  0.339063E-07
 -0.457403E-08 -0.339593E-08 -0.512460E-08  0.308796E-07
  0.116836E-06  0.224124E-06  0.307075E-06  0.333784E-06
  0.302069E-06  0.233708E-06  0.157102E-06  0.927258E-07
  0.484021E-07  0.224591E-07  0.929828E-08  0.344434E-08
  0.114401E-08  0.341271E-09  0.304442E-09  0.101851E-08
  0.306438E-08  0.827665E-08  0.200238E-07  0.432728E-07
  0.832339E-07  0.141809E-06  0.212594E-06  0.277815E-06
  0.312140E-06  0.295348E-06  0.228177E-06  0.139205E-06
  0.738955E-07  0.545315E-07  0.511976E-07  0.537469E-07
  0.713133E-07  0.134819E-06  0.223980E-06  0.293069E-06
  0.312414E-06  0.280098E-06  0.215739E-06  0.144773E-06
  0.854567E-07  0.446715E-07  0.207813E-07  0.863475E-08
  0.321353E-08  0.107357E-08  0.322539E-09  0.276201E-09
  0.914987E-09  0.273082E-08  0.732853E-08  0.176445E-07
  0.380090E-07  0.730101E-07  0.124513E-06  0.187478E-06
  0.247435E-06  0.283749E-06  0.280484E-06  0.240255E-06
  0.189795E-06  0.161089E-06  0.154416E-06  0.153342E-06
  0.153822E-06  0.159559E-06  0.186967E-06  0.237317E-06
  0.279018E-06  0.284355E-06  0.249658E-06  0.190350E-06
  0.127161E-06  0.749771E-07  0.392413E-07  0.183108E-07
  0.764366E-08  0.286227E-08  0.963639E-09  0.292243E-09
  0.237888E-09  0.779462E-09  0.230553E-08  0.614393E-08
  0.147187E-07  0.316185E-07  0.607301E-07  0.103941E-06
  0.157936E-06  0.212339E-06  0.252447E-06  0.267825E-06
  0.262292E-06  0.253554E-06  0.254405E-06  0.259982E-06
  0.262393E-06  0.259797E-06  0.253919E-06  0.252554E-06
  0.261181E-06  0.267565E-06  0.253549E-06  0.214519E-06
  0.160482E-06  0.106206E-06  0.623864E-07  0.326483E-07
  0.152738E-07  0.640631E-08  0.241511E-08  0.820124E-09
  0.251343E-09  0.192781E-09  0.624641E-09  0.183093E-08
  0.484596E-08  0.115582E-07  0.247902E-07  0.477113E-07
  0.822334E-07  0.126783E-06  0.175069E-06  0.218066E-06
  0.249696E-06  0.271958E-06  0.291918E-06  0.311699E-06
  0.326435E-06  0.331763E-06  0.326638E-06  0.312052E-06
  0.292288E-06  0.272399E-06  0.250574E-06  0.219642E-06
  0.177173E-06  0.128968E-06  0.840843E-07  0.490334E-07
  0.256028E-07  0.119938E-07  0.505150E-08  0.191683E-08
  0.656588E-09  0.203392E-09  0.145961E-09  0.467833E-09
  0.135947E-08  0.357573E-08  0.849891E-08  0.182260E-07
  0.352216E-07  0.613104E-07  0.962537E-07  0.136943E-06
  0.178499E-06  0.217220E-06  0.252597E-06  0.285182E-06
  0.312858E-06  0.331415E-06  0.337986E-06  0.331841E-06
  0.313669E-06  0.286267E-06  0.253873E-06  0.218726E-06
  0.180270E-06  0.138849E-06  0.980346E-07  0.627417E-07
  0.362160E-07  0.188282E-07  0.881933E-08  0.372645E-08
  0.142245E-08  0.491305E-09  0.153785E-09  0.102707E-09
  0.325813E-09  0.939080E-09  0.245611E-08  0.582201E-08
  0.124960E-07  0.242768E-07  0.427263E-07  0.683196E-07
  0.998841E-07  0.134983E-06  0.171131E-06  0.206489E-06
  0.239040E-06  0.265654E-06  0.283009E-06  0.289123E-06
  0.283470E-06  0.266542E-06  0.240261E-06  0.207926E-06
  0.172696E-06  0.136602E-06  0.101440E-06  0.696675E-07
  0.437604E-07  0.249758E-07  0.129127E-07  0.604179E-08
  0.255909E-08  0.982094E-09  0.341873E-09  0.108081E-09
  0.669116E-10  0.210179E-09  0.601090E-09  0.156377E-08
  0.369794E-08  0.794555E-08  0.155172E-07  0.275877E-07
  0.448128E-07  0.669284E-07  0.927591E-07  0.120600E-06
  0.148483E-06  0.174054E-06  0.194626E-06  0.207878E-06
  0.212534E-06  0.208252E-06  0.195349E-06  0.175060E-06
  0.149671E-06  0.121864E-06  0.940028E-07  0.680568E-07
  0.457437E-07  0.282771E-07  0.159723E-07  0.821294E-08
  0.383784E-08  0.162909E-08  0.628360E-09  0.220382E-09
  0.703398E-10  0.402486E-10  0.125229E-09  0.355412E-09
  0.919671E-09  0.216900E-08  0.466255E-08  0.914225E-08
  0.163822E-07  0.269235E-07  0.408091E-07  0.574707E-07
  0.758055E-07  0.943061E-07  0.111179E-06  0.124607E-06
  0.133186E-06  0.136191E-06  0.133434E-06  0.125089E-06
  0.111857E-06  0.951123E-07  0.766592E-07  0.582939E-07
  0.415347E-07  0.275050E-07  0.168026E-07  0.941501E-08
  0.482097E-08  0.225134E-08  0.958010E-09  0.371424E-09
  0.131237E-09  0.422765E-10  0.223088E-10  0.687691E-10
  0.193669E-09  0.498258E-09  0.117109E-08  0.251544E-08
  0.494239E-08  0.889992E-08  0.147348E-07  0.225337E-07
  0.320182E-07  0.425389E-07  0.531508E-07  0.627570E-07
  0.703246E-07  0.751200E-07  0.767926E-07  0.752594E-07
  0.705985E-07  0.631466E-07  0.536190E-07  0.430366E-07
  0.324955E-07  0.229492E-07  0.150627E-07  0.913355E-08
  0.509226E-08  0.260182E-08  0.121580E-08  0.519049E-09
  0.202365E-09  0.720438E-10  0.234202E-10  0.113762E-10
  0.347494E-10  0.970864E-10  0.248186E-09  0.580708E-09
  0.124435E-08  0.244438E-08  0.440953E-08  0.732484E-08
  0.112472E-07  0.160395E-07  0.213568E-07  0.266920E-07
  0.314745E-07  0.351998E-07  0.375383E-07  0.383500E-07
  0.376062E-07  0.353347E-07  0.316693E-07  0.269296E-07
  0.216119E-07  0.162850E-07  0.114603E-07  0.749195E-08
  0.452778E-08  0.251978E-08  0.128763E-08  0.603078E-09
  0.258597E-09  0.101453E-09  0.364015E-10  0.119405E-10
  0.532999E-11  0.161356E-10  0.447133E-10  0.113496E-09
  0.264051E-09  0.563482E-09  0.110408E-08  0.198939E-08
  0.330396E-08  0.507353E-08  0.723248E-08  0.961599E-08
  0.119856E-07  0.140833E-07  0.156952E-07  0.166953E-07
  0.170400E-07  0.167242E-07  0.157536E-07  0.141693E-07
  0.120925E-07  0.973244E-08  0.734554E-08  0.517204E-08
  0.338122E-08  0.204399E-08  0.113884E-08  0.583425E-09
  0.274367E-09  0.118309E-09  0.467408E-10  0.169071E-10
  0.559528E-11  0.229155E-11  0.687636E-11  0.188971E-10
  0.475975E-10  0.109984E-09  0.233352E-09  0.455075E-09
  0.816857E-09  0.135221E-08  0.206986E-08  0.294001E-08
  0.389179E-08  0.482595E-08  0.563990E-08  0.625485E-08