<?xml version="1.0"?>
 <VTKFile type="ImageData" version="0.1" byte_order="LittleEndian">
   <ImageData WholeExtent="           0          32           0          32           0          32 " Origin="  -8.0000000000000000       -8.0000000000000000       -8.0000000000000000      " Spacing="  0.50000000000000000       0.50000000000000000       0.50000000000000000      ">
   <Piece Extent="           0          32           0          32           0          32 ">
   <PointData Scalars="scalars">
   <DataArray Name="vectors" type="Float64" NumberOfComponents="3" Format="ascii">
  0.307825E-13 -0.319070E-13  0.317145E-17
  0.899649E-13 -0.842369E-13 -0.918808E-16
  0.238242E-12 -0.199538E-12 -0.547379E-15
  0.571359E-12 -0.423458E-12 -0.213731E-14
  0.124360E-11 -0.803756E-12 -0.667360E-14
  0.245551E-11 -0.136041E-11 -0.176664E-13
  0.440217E-11 -0.204537E-11 -0.406221E-13
  0.717572E-11 -0.271864E-11 -0.823151E-13
  0.106566E-10 -0.316811E-11 -0.148202E-12
  0.144642E-10 -0.319464E-11 -0.238137E-12
  0.180315E-10 -0.272247E-11 -0.342063E-12
  0.208002E-10 -0.186539E-11 -0.438479E-12
  0.224483E-10 -0.892126E-12 -0.498108E-12
  0.230169E-10 -0.103106E-12 -0.492820E-12
  0.228656E-10  0.304944E-12 -0.406747E-12
  0.224904E-10  0.310121E-12 -0.244685E-12
  0.223096E-10  0.522217E-13 -0.335530E-13
  0.224980E-10 -0.226695E-12  0.184262E-12
  0.229234E-10 -0.274332E-12  0.364155E-12
  0.231830E-10  0.869818E-13  0.472976E-12
  0.227532E-10  0.865045E-12  0.499090E-12
  0.212243E-10  0.187084E-11  0.453527E-12
  0.185122E-10  0.278592E-11  0.363010E-12
  0.149251E-10  0.331186E-11  0.258383E-12
  0.110380E-10  0.331221E-11  0.164107E-12
  0.745182E-11  0.285743E-11  0.929993E-13
  0.457833E-11  0.215636E-11  0.468991E-13
  0.255508E-11  0.143619E-11  0.209306E-13
  0.129360E-11  0.848630E-12  0.818452E-14
  0.593868E-12  0.446771E-12  0.276661E-14
  0.247125E-12  0.210131E-12  0.781655E-15
  0.931135E-13  0.885026E-13  0.170700E-15
  0.317742E-13  0.334272E-13  0.207811E-16
  0.780224E-13 -0.898315E-13  0.109424E-15
  0.229056E-12 -0.238214E-12  0.357463E-16
  0.609361E-12 -0.567220E-12 -0.768159E-15
  0.147021E-11 -0.121032E-11 -0.421476E-14
  0.321885E-11 -0.231274E-11 -0.150649E-13
  0.639849E-11 -0.394671E-11 -0.429369E-13
  0.115632E-10 -0.599740E-11 -0.103739E-12
  0.190319E-10 -0.808223E-11 -0.218089E-12
  0.286079E-10 -0.960301E-11 -0.404330E-12
  0.394359E-10 -0.997263E-11 -0.665828E-12
  0.501578E-10 -0.892649E-11 -0.976749E-12
  0.593678E-10 -0.671877E-11 -0.127491E-11
  0.661376E-10 -0.404151E-11 -0.147035E-11
  0.703064E-10 -0.169522E-11 -0.147201E-11
  0.723754E-10 -0.224617E-12 -0.122431E-11
  0.731441E-10  0.282877E-12 -0.737614E-12
  0.732912E-10  0.151005E-12 -0.957050E-13
  0.731184E-10 -0.428863E-13  0.566067E-12
  0.724350E-10  0.319113E-12  0.110512E-11
  0.705989E-10  0.165464E-11  0.141960E-11
  0.667487E-10  0.396144E-11  0.147868E-11
  0.602636E-10  0.671728E-11  0.132373E-11
  0.511995E-10  0.907474E-11  0.104183E-11
  0.404472E-10  0.102627E-10  0.727773E-12
  0.294499E-10  0.996587E-11  0.452610E-12
  0.196420E-10  0.843400E-11  0.250364E-12
  0.119515E-10  0.627913E-11  0.122643E-12
  0.661674E-11  0.413877E-11  0.527485E-13
  0.332752E-11  0.242601E-11  0.196090E-13
  0.151821E-11  0.126869E-11  0.609781E-14
  0.628175E-12  0.593623E-12  0.147116E-14
  0.235582E-12  0.248742E-12  0.200886E-15
  0.800244E-13  0.935393E-13 -0.374127E-16
  0.177309E-12 -0.229159E-12  0.569924E-15
  0.523303E-12 -0.610383E-12  0.952345E-15
  0.139972E-11 -0.146114E-11  0.328260E-15
  0.339836E-11 -0.313902E-11 -0.532060E-14
  0.749081E-11 -0.604259E-11 -0.269399E-13
  0.150079E-10 -0.104053E-10 -0.881643E-13
  0.273737E-10 -0.159925E-10 -0.230163E-12
  0.455616E-10 -0.218758E-10 -0.509466E-12
  0.694456E-10 -0.265337E-10 -0.981265E-12
  0.974283E-10 -0.284003E-10 -0.166538E-11
  0.126703E-09 -0.266510E-10 -0.250422E-11
  0.154144E-09 -0.217256E-10 -0.333621E-11
  0.177333E-09 -0.151733E-10 -0.391193E-11
  0.195115E-09 -0.885844E-11 -0.396611E-11
  0.207371E-09 -0.410112E-11 -0.332580E-11
  0.214446E-09 -0.122081E-11 -0.200707E-11
  0.216697E-09  0.373613E-12 -0.245026E-12
  0.214343E-09  0.181401E-11  0.156995E-11
  0.207404E-09  0.433111E-11  0.302799E-11
  0.195605E-09  0.874586E-11  0.384528E-11
  0.178474E-09  0.149475E-10  0.395099E-11
  0.155880E-09  0.216749E-10  0.348022E-11
  0.128754E-09  0.269533E-10  0.268813E-11
  0.994344E-10  0.290431E-10  0.183761E-11
  0.711189E-10  0.273565E-10  0.111438E-11
  0.467719E-10  0.226801E-10  0.598011E-12
  0.281402E-10  0.166380E-10  0.281858E-12
  0.154353E-10  0.108447E-10  0.114944E-12
  0.770120E-11  0.630072E-11  0.393297E-13
  0.348988E-11  0.327115E-11  0.104628E-13
  0.143485E-11  0.152044E-11  0.158858E-14
  0.535156E-12  0.633772E-12 -0.306156E-15
  0.180810E-12  0.237278E-12 -0.373151E-15
  0.360653E-12 -0.529322E-12  0.207597E-14
  0.107046E-11 -0.141845E-11  0.447990E-14
  0.288309E-11 -0.341656E-11  0.689646E-14
  0.704937E-11 -0.739079E-11  0.249513E-14
  0.156635E-10 -0.143453E-10 -0.304817E-13
  0.316715E-10 -0.249512E-10 -0.143331E-12
  0.583949E-10 -0.388334E-10 -0.431424E-12
  0.984697E-10 -0.539934E-10 -0.103421E-11
  0.152516E-09 -0.669523E-10 -0.210027E-11
  0.218269E-09 -0.739289E-10 -0.370553E-11
  0.290850E-09 -0.726165E-10 -0.574180E-11
  0.364196E-09 -0.634244E-10 -0.783318E-11
  0.432635E-09 -0.492450E-10 -0.935729E-11
  0.491622E-09 -0.338323E-10 -0.961865E-11
  0.537409E-09 -0.199815E-10 -0.813688E-11
  0.566606E-09 -0.865755E-11 -0.492002E-11
  0.576586E-09  0.776913E-12 -0.562109E-12
  0.566466E-09  0.987430E-11  0.392308E-11
  0.537550E-09  0.204017E-10  0.747429E-11
  0.492608E-09  0.334964E-10  0.937906E-11
  0.434800E-09  0.486502E-10  0.949677E-11
  0.367425E-09  0.632006E-10  0.821702E-11
  0.294627E-09  0.731574E-10  0.621228E-11
  0.221936E-09  0.752153E-10  0.413905E-11
  0.155554E-09  0.686425E-10  0.243243E-11
  0.100650E-09  0.556602E-10  0.125398E-11
  0.597627E-10  0.401740E-10  0.559304E-12
  0.324250E-10  0.258623E-10  0.209437E-12
  0.160287E-10  0.148780E-10  0.610322E-13
  0.720502E-11  0.766154E-11  0.101805E-13
  0.294123E-11  0.353685E-11 -0.216004E-14
  0.108968E-11  0.146530E-11 -0.288294E-14
  0.365913E-12  0.545326E-12 -0.158923E-14
  0.655251E-12 -0.110969E-11  0.614436E-14
  0.195849E-11 -0.299109E-11  0.148442E-13
  0.531527E-11 -0.725299E-11  0.293173E-13
  0.131073E-10 -0.158144E-10  0.416368E-13
  0.294032E-10 -0.309835E-10  0.158190E-13
  0.601072E-10 -0.545043E-10 -0.145332E-12
  0.112253E-09 -0.860322E-10 -0.638446E-12
  0.192213E-09 -0.121796E-09 -0.177214E-11
  0.303283E-09 -0.154667E-09 -0.390453E-11
  0.443846E-09 -0.176371E-09 -0.726731E-11
  0.607276E-09 -0.181047E-09 -0.117012E-10
  0.783403E-09 -0.167936E-09 -0.164276E-10
  0.960158E-09 -0.141189E-09 -0.200509E-10
  0.112390E-08 -0.107008E-09 -0.209333E-10
  0.125903E-08 -0.704590E-10 -0.178820E-10
  0.134909E-08 -0.341307E-10 -0.108387E-10
  0.138085E-08  0.129208E-11 -0.115256E-11
  0.134937E-08  0.360747E-10  0.880905E-11
  0.126014E-08  0.708940E-10  0.165746E-10
  0.112656E-08  0.106025E-09  0.205355E-10
  0.964713E-09  0.139757E-09  0.204606E-10
  0.789522E-09  0.167278E-09  0.173469E-10
  0.614057E-09  0.181924E-09  0.127858E-10
  0.450218E-09  0.178738E-09  0.825057E-11
  0.308445E-09  0.157851E-09  0.465115E-11
  0.195853E-09  0.124957E-09  0.226334E-11
  0.114499E-09  0.885750E-10  0.923186E-12
  0.613227E-10  0.562271E-10  0.292161E-12
  0.299804E-10  0.319851E-10  0.519356E-13
  0.133469E-10  0.163192E-10 -0.135435E-13
  0.540166E-11  0.747479E-11 -0.188191E-13
  0.198514E-11  0.307619E-11 -0.112998E-13
  0.662062E-12  0.113820E-11 -0.506355E-14
  0.105967E-11 -0.210994E-11  0.154909E-13
  0.319481E-11 -0.572666E-11  0.399793E-13
  0.875309E-11 -0.139960E-10  0.883290E-13
  0.218111E-10 -0.307973E-10  0.160337E-12
  0.495031E-10 -0.609943E-10  0.211193E-12
  0.102552E-09 -0.108706E-09  0.840371E-13
  0.194505E-09 -0.174364E-09 -0.578740E-12
  0.339162E-09 -0.251879E-09 -0.238779E-11
  0.546734E-09 -0.328205E-09 -0.611574E-11
  0.820380E-09 -0.386888E-09 -0.123610E-10
  0.115455E-08 -0.414366E-09 -0.209843E-10
  0.153495E-08 -0.405151E-09 -0.305624E-10
  0.193824E-08 -0.362250E-09 -0.382897E-10
  0.233021E-08 -0.293111E-09 -0.407111E-10
  0.266572E-08 -0.205233E-09 -0.351735E-10
  0.289490E-08 -0.104910E-09 -0.213905E-10
  0.297723E-08  0.145572E-11 -0.210493E-11
  0.289716E-08  0.106797E-09  0.177151E-10
  0.267059E-08  0.204732E-09  0.328976E-10
  0.233800E-08  0.290462E-09  0.401883E-10
  0.194872E-08  0.359149E-09  0.393073E-10
  0.154712E-08  0.403686E-09  0.325299E-10
  0.116686E-08  0.415787E-09  0.232247E-10
  0.831287E-09  0.391033E-09  0.143596E-10
  0.555215E-09  0.333820E-09  0.761894E-11
  0.344962E-09  0.257447E-09  0.337048E-11
  0.197995E-09  0.178827E-09  0.114581E-11
  0.104397E-09  0.111712E-09  0.207417E-12
  0.503575E-10  0.627283E-10 -0.770095E-13
  0.221554E-10  0.316626E-10 -0.104782E-12
  0.887230E-11  0.143712E-10 -0.675834E-13
  0.322938E-11  0.586820E-11 -0.329751E-13
  0.106752E-11  0.215631E-11 -0.133559E-13
  0.151874E-11 -0.364372E-11  0.341194E-13
  0.463007E-11 -0.996819E-11  0.919519E-13
  0.128398E-10 -0.245910E-10  0.217112E-12
  0.324216E-10 -0.547027E-10  0.440635E-12
  0.746769E-10 -0.109737E-09  0.737309E-12
  0.157292E-09 -0.198597E-09  0.903248E-12
  0.304025E-09 -0.324508E-09  0.373099E-12
  0.541754E-09 -0.479509E-09 -0.192815E-11
  0.895183E-09 -0.642447E-09 -0.749228E-11
  0.138079E-08 -0.783467E-09 -0.176579E-10
  0.200145E-08 -0.873704E-09 -0.325455E-10
  0.274127E-08 -0.894342E-09 -0.498912E-10
  0.355885E-08 -0.839144E-09 -0.646744E-10
  0.438033E-08 -0.710830E-09 -0.703409E-10
  0.510020E-08 -0.517371E-09 -0.616181E-10
  0.559948E-08 -0.272824E-09 -0.376359E-10
  0.578115E-08  0.117075E-13 -0.340931E-11
  0.560733E-08  0.271555E-09  0.317469E-10
  0.511515E-08  0.513203E-09  0.581529E-10
  0.440087E-08  0.704423E-09  0.698934E-10
  0.358278E-08  0.833163E-09  0.668447E-10
  0.276592E-08  0.891859E-09  0.536257E-10
  0.202417E-08  0.876371E-09  0.366622E-10
  0.139955E-08  0.790700E-09  0.212712E-10
  0.909025E-09  0.652003E-09  0.101827E-10
  0.550851E-09  0.488840E-09  0.367362E-11
  0.309330E-09  0.331899E-09  0.628180E-12
  0.160024E-09  0.203522E-09 -0.391067E-12
  0.759112E-10  0.112547E-09 -0.502405E-12
  0.329061E-10  0.560879E-10 -0.343669E-12
  0.130022E-10  0.251831E-10 -0.180982E-12
  0.467492E-11  0.101875E-10 -0.797716E-13
  0.152798E-11  0.371369E-11 -0.303962E-13
  0.191566E-11 -0.572041E-11  0.662319E-13
  0.593059E-11 -0.158052E-10  0.184615E-12
  0.167157E-10 -0.394393E-10  0.456324E-12
  0.429569E-10 -0.889051E-10  0.989987E-12
  0.100861E-09 -0.181136E-09  0.184950E-11
  0.216991E-09 -0.333837E-09  0.285660E-11
  0.429372E-09 -0.557336E-09  0.325542E-11
  0.785226E-09 -0.844708E-09  0.137342E-11
  0.133469E-08 -0.116587E-08 -0.536294E-11
  0.212111E-08 -0.147103E-08 -0.195981E-10
  0.316852E-08 -0.170339E-08 -0.422193E-10
  0.446531E-08 -0.181336E-08 -0.701771E-10
  0.594403E-08 -0.176673E-08 -0.954891E-10
  0.746457E-08 -0.154636E-08 -0.107055E-09
  0.881776E-08 -0.115468E-08 -0.954698E-10
  0.976536E-08 -0.620846E-09 -0.587119E-10
  0.101132E-07 -0.542159E-11 -0.486455E-11
  0.978491E-08  0.609010E-09  0.504188E-10
  0.885350E-08  0.114098E-08  0.909096E-10
  0.751078E-08  0.153251E-08  0.107095E-09
  0.599408E-08  0.175649E-08  0.994730E-10
  0.451317E-08  0.181051E-08  0.764255E-10
  0.320967E-08  0.170936E-08  0.488946E-10
  0.215311E-08  0.148406E-08  0.253554E-10
  0.135718E-08  0.118203E-08  0.959599E-11
  0.799444E-09  0.859972E-09  0.134648E-11
  0.437419E-09  0.569162E-09 -0.170848E-11
  0.221042E-09  0.341586E-09 -0.207124E-11
  0.102662E-09  0.185493E-09 -0.149170E-11
  0.436556E-10  0.910227E-10 -0.843158E-12
  0.169485E-10  0.403309E-10 -0.401891E-12
  0.599500E-11  0.161297E-10 -0.166341E-12
  0.192970E-11  0.582155E-11 -0.606525E-13
  0.210526E-11 -0.818287E-11  0.114225E-12
  0.666262E-11 -0.228941E-10  0.327254E-12
  0.192178E-10 -0.579558E-10  0.837439E-12
  0.506058E-10 -0.132819E-09  0.190237E-11
  0.121934E-09 -0.275782E-09  0.379649E-11
  0.269653E-09 -0.519406E-09  0.652982E-11
  0.549431E-09 -0.888856E-09  0.929854E-11
  0.103623E-08 -0.138529E-08  0.982544E-11
  0.181802E-08 -0.197195E-08  0.414275E-11
  0.298151E-08 -0.257200E-08 -0.123685E-10
  0.458795E-08 -0.308118E-08 -0.422080E-10
  0.663815E-08 -0.338890E-08 -0.821286E-10
  0.903038E-08 -0.339840E-08 -0.120927E-09
  0.115294E-07 -0.304437E-08 -0.141819E-09
  0.137752E-07 -0.231225E-08 -0.129817E-09
  0.153572E-07 -0.125879E-08 -0.807876E-10
  0.159417E-07 -0.182480E-10 -0.606326E-11
  0.153962E-07  0.122284E-08  0.706237E-10
  0.138453E-07  0.227885E-08  0.124724E-09
  0.116176E-07  0.301741E-08  0.142920E-09
  0.912272E-08  0.338281E-08  0.127203E-09
  0.672298E-08  0.338819E-08  0.912340E-10
  0.465791E-08  0.309509E-08  0.516276E-10
  0.303379E-08  0.259609E-08  0.203280E-10
  0.185349E-08  0.199946E-08  0.161370E-11
  0.105802E-08  0.141011E-08 -0.618162E-11
  0.561505E-09  0.907510E-09 -0.725410E-11
  0.275651E-09  0.531361E-09 -0.550558E-11
  0.124588E-09  0.282389E-09 -0.333574E-11
  0.516426E-10  0.135984E-09 -0.171556E-11
  0.195713E-10  0.592706E-10 -0.768951E-12
  0.676569E-11  0.233664E-10 -0.304492E-12
  0.212994E-11  0.832815E-11 -0.107350E-12
  0.197899E-11 -0.107016E-10  0.175644E-12
  0.648597E-11 -0.304309E-10  0.515055E-12
  0.193777E-10 -0.784612E-10  0.135527E-11
  0.528679E-10 -0.183558E-09  0.318700E-11
  0.132034E-09 -0.389995E-09  0.665410E-11
  0.302741E-09 -0.753433E-09  0.122025E-10
  0.639628E-09 -0.132558E-08  0.192762E-10
  0.125030E-08 -0.212812E-08  0.252021E-10
  0.227033E-08 -0.312432E-08  0.245276E-10
  0.384347E-08 -0.420298E-08  0.100741E-10
  0.608185E-08 -0.518521E-08 -0.233352E-10
  0.900524E-08 -0.585369E-08 -0.733714E-10
  0.124716E-07 -0.599672E-08 -0.126384E-09
  0.161290E-07 -0.545840E-08 -0.159824E-09
  0.194344E-07 -0.419143E-08 -0.152230E-09
  0.217703E-07 -0.229941E-08 -0.960689E-10
  0.226363E-07 -0.420316E-10 -0.651899E-11
  0.218349E-07  0.221937E-08  0.853660E-10
  0.195499E-07  0.412359E-08  0.147534E-09
  0.162729E-07  0.541072E-08  0.162345E-09
  0.126200E-07  0.597529E-08  0.134757E-09
  0.913897E-08  0.586020E-08  0.846973E-10
  0.618980E-08  0.521526E-08  0.346417E-10
  0.392237E-08  0.424698E-08 -0.786006E-12
  0.232277E-08  0.317090E-08 -0.179818E-10
  0.128198E-08  0.216822E-08 -0.211645E-10
  0.656986E-09  0.135477E-08 -0.170702E-10
  0.311328E-09  0.771709E-09 -0.111274E-10
  0.135852E-09  0.399921E-09 -0.618397E-11
  0.543854E-10  0.188252E-09 -0.300179E-11
  0.199133E-10  0.803933E-10 -0.128929E-11
  0.665246E-11  0.311211E-10 -0.493729E-12
  0.202395E-11  0.109137E-10 -0.169368E-12
  0.153542E-11 -0.128639E-10  0.240861E-12
  0.535808E-11 -0.373626E-10  0.720641E-12
  0.169641E-10 -0.986067E-10  0.194056E-11
  0.488504E-10 -0.236614E-09  0.468916E-11
  0.128321E-09 -0.516575E-09  0.101216E-10
  0.308431E-09 -0.102703E-08  0.193794E-10
  0.680787E-09 -0.186141E-08  0.325383E-10
  0.138490E-08 -0.307911E-08  0.469682E-10
  0.260548E-08 -0.465441E-08  0.559959E-10
  0.454671E-08 -0.643452E-08  0.497184E-10
  0.737465E-08 -0.813172E-08  0.193663E-10
  0.111294E-07 -0.936395E-08 -0.352079E-10
  0.156269E-07 -0.973780E-08 -0.997046E-10
  0.203975E-07 -0.895581E-08 -0.147223E-09
  0.247191E-07 -0.692229E-08 -0.149947E-09
  0.277755E-07 -0.381435E-08 -0.975827E-10
  0.289110E-07 -0.789688E-10 -0.593899E-11
  0.278666E-07  0.366618E-08  0.880924E-10
  0.248816E-07  0.680222E-08  0.146526E-09
  0.205993E-07  0.887833E-08  0.150932E-09
  0.158339E-07  0.971047E-08  0.108897E-09
  0.113146E-07  0.938484E-08  0.467789E-10
  0.752281E-08  0.818922E-08 -0.836812E-11
  0.465392E-08  0.651061E-08 -0.411077E-10
  0.267603E-08  0.473066E-08 -0.502398E-10
  0.142719E-08  0.314236E-08 -0.436248E-10
  0.703856E-09  0.190622E-08 -0.308352E-10
  0.319857E-09  0.105453E-08 -0.186143E-10
  0.133445E-09  0.531300E-09 -0.981772E-11
  0.509279E-10  0.243506E-09 -0.458224E-11
  0.177199E-10  0.101434E-09 -0.190722E-11
  0.560522E-11  0.383744E-10 -0.711412E-12
  0.160768E-11  0.131780E-10 -0.238587E-12
  0.900565E-12 -0.143303E-10  0.293351E-12
  0.360364E-11 -0.427721E-10  0.893065E-12
  0.126912E-10 -0.116183E-09  0.245165E-11
  0.398287E-10 -0.287253E-09  0.605438E-11
  0.112309E-09 -0.646583E-09  0.134034E-10
  0.286482E-09 -0.132531E-08  0.264658E-10
  0.664743E-09 -0.247456E-08  0.462515E-10
  0.140979E-08 -0.421050E-08  0.706866E-10
  0.274413E-08 -0.653112E-08  0.925763E-10
  0.491907E-08 -0.923495E-08  0.997074E-10
  0.814221E-08 -0.118898E-07  0.796584E-10
  0.124669E-07 -0.138874E-07  0.285760E-10
  0.176744E-07 -0.145850E-07 -0.410275E-10
  0.232072E-07 -0.134959E-07 -0.100778E-09
  0.282174E-07 -0.104670E-07 -0.118916E-09
  0.317578E-07 -0.577985E-08 -0.819015E-10
  0.330736E-07 -0.128344E-09 -0.446046E-11
  0.318680E-07  0.554054E-08  0.749846E-10
  0.284141E-07  0.102772E-07  0.117085E-09
  0.234516E-07  0.133791E-07  0.104613E-09
  0.179251E-07  0.145512E-07  0.487630E-10
  0.126909E-07  0.139298E-07 -0.197394E-10
  0.832096E-08  0.119867E-07 -0.720845E-10
  0.504795E-08  0.935629E-08 -0.945107E-10
  0.282861E-08  0.664872E-08 -0.896995E-10
  0.146028E-08  0.430567E-08 -0.694457E-10
  0.692264E-09  0.254072E-08 -0.458957E-10
  0.300155E-09  0.136534E-08 -0.264641E-10
  0.118493E-09  0.667801E-09 -0.134840E-10
  0.423713E-10  0.297137E-09 -0.612024E-11
  0.136403E-10  0.120234E-09 -0.248779E-11
  0.392513E-11  0.442307E-10 -0.908900E-12
  0.999290E-12  0.147904E-10 -0.299202E-12
  0.277190E-12 -0.149795E-10  0.313662E-12
  0.177820E-11 -0.462298E-10  0.968957E-12
  0.789750E-11 -0.129846E-09  0.270216E-11
  0.285554E-10 -0.331763E-09  0.678890E-11
  0.886943E-10 -0.770754E-09  0.153220E-10
  0.242669E-09 -0.162757E-08  0.309396E-10
  0.593412E-09 -0.312328E-08  0.555761E-10
  0.130950E-08 -0.544599E-08  0.880661E-10
  0.262606E-08 -0.862782E-08  0.121596E-09
  0.481120E-08 -0.124136E-07  0.142982E-09
  0.808595E-08 -0.161982E-07  0.137327E-09
  0.125048E-07 -0.191001E-07  0.970238E-10
  0.178338E-07 -0.201789E-07  0.309082E-10
  0.234896E-07 -0.187300E-07 -0.348040E-10
  0.285996E-07 -0.145447E-07 -0.680896E-10
  0.322030E-07 -0.803668E-08 -0.535034E-10
  0.335413E-07 -0.185841E-09 -0.264817E-11
  0.323178E-07  0.769091E-08  0.495544E-10
  0.288050E-07  0.142725E-07  0.673370E-10
  0.237452E-07  0.185660E-07  0.371987E-10
  0.180965E-07  0.201368E-07 -0.270686E-10
  0.127399E-07  0.191681E-07 -0.938083E-10
  0.827351E-08  0.163426E-07 -0.135995E-09
  0.494626E-08  0.125900E-07 -0.143582E-09
  0.271444E-08  0.879587E-08 -0.123362E-09
  0.136223E-08  0.558008E-08 -0.900884E-10
  0.622154E-09  0.321543E-08 -0.572505E-10
  0.256989E-09  0.168283E-08 -0.320618E-10
  0.952163E-10  0.799875E-09 -0.159583E-10
  0.312700E-10  0.345296E-09 -0.710082E-11
  0.892977E-11  0.135402E-09 -0.283611E-11
  0.213672E-11  0.482455E-10 -0.101976E-11
  0.390920E-12  0.156250E-10 -0.330770E-12
 -0.149566E-12 -0.149539E-10  0.286235E-12
  0.402771E-12 -0.479042E-10  0.894554E-12
  0.387202E-11 -0.139339E-09  0.252535E-11
  0.178269E-10 -0.367692E-09  0.642807E-11
  0.625882E-10 -0.879564E-09  0.147156E-10
  0.184434E-09 -0.190628E-08  0.301946E-10
  0.473695E-09 -0.374198E-08  0.552711E-10
  0.108128E-08 -0.665161E-08  0.896673E-10
  0.222001E-08 -0.107056E-07  0.127837E-09
  0.413291E-08 -0.155944E-07  0.157670E-09
  0.701826E-08 -0.205325E-07  0.164294E-09
  0.109201E-07 -0.243535E-07  0.138164E-09
  0.156217E-07 -0.258118E-07  0.834707E-10
  0.205986E-07 -0.239870E-07  0.223068E-10
  0.250805E-07 -0.186275E-07 -0.188636E-10
  0.282325E-07 -0.102909E-07 -0.240997E-10
  0.294018E-07 -0.244120E-09 -0.115334E-11
  0.283349E-07  0.983658E-08  0.223555E-10
  0.252639E-07  0.182696E-07  0.182272E-10
  0.208272E-07  0.237721E-07 -0.225487E-10
  0.158570E-07  0.257584E-07 -0.848151E-10
  0.111306E-07  0.244461E-07 -0.141788E-09
  0.718599E-08  0.207254E-07 -0.170206E-09
  0.425336E-08  0.158280E-07 -0.164788E-09
  0.229855E-08  0.109264E-07 -0.134712E-09
  0.112800E-08  0.682655E-08 -0.952118E-10
  0.499122E-09  0.386148E-08 -0.591058E-10
  0.197125E-09  0.197760E-08 -0.324991E-10
  0.684042E-10  0.917040E-09 -0.159308E-10
  0.202752E-10  0.385099E-09 -0.699440E-11
  0.481892E-11  0.146505E-09 -0.275980E-11
  0.739012E-12  0.505219E-10 -0.981102E-12
 -0.393068E-13  0.158028E-10 -0.314765E-12
 -0.291244E-12 -0.145838E-10  0.206293E-12
 -0.262408E-12 -0.483826E-10  0.650181E-12
  0.130218E-11 -0.145130E-09  0.185135E-11
  0.924048E-11 -0.393355E-09  0.475584E-11
  0.372548E-10 -0.962826E-09  0.109953E-10
  0.117561E-09 -0.212780E-08  0.228077E-10
  0.314323E-09 -0.424534E-08  0.422753E-10
  0.736034E-09 -0.764731E-08  0.696061E-10
  0.153649E-08 -0.124380E-07  0.101237E-09
  0.289097E-08 -0.182611E-07  0.128288E-09
  0.494067E-08 -0.241756E-07  0.138932E-09
  0.771318E-08 -0.287692E-07  0.125432E-09
  0.110478E-07 -0.305373E-07  0.891169E-10
  0.145672E-07 -0.283843E-07  0.436657E-10
  0.177271E-07 -0.220323E-07  0.861361E-11
  0.199441E-07 -0.121671E-07 -0.480056E-11
  0.207669E-07 -0.294370E-09 -0.298845E-12
  0.200197E-07  0.116186E-07  0.412927E-11
  0.178621E-07  0.215989E-07 -0.971428E-11
  0.147352E-07  0.281226E-07 -0.464028E-10
  0.112198E-07  0.304711E-07 -0.947927E-10
  0.786608E-08  0.288804E-07 -0.134473E-09
  0.506135E-08  0.244087E-07 -0.150400E-09
  0.297669E-08  0.185433E-07 -0.140299E-09
  0.159176E-08  0.127041E-07 -0.111871E-09
  0.768603E-09  0.785762E-08 -0.777075E-10
  0.331960E-09  0.438862E-08 -0.476550E-10
  0.126378E-09  0.221315E-08 -0.259483E-10
  0.413336E-10  0.100763E-08 -0.126159E-10
  0.109886E-10  0.414179E-09 -0.549879E-11
  0.199581E-11  0.153728E-09 -0.215505E-11
 -0.821478E-14  0.515423E-10 -0.761200E-12
 -0.205461E-12  0.156185E-10 -0.242665E-12
 -0.183706E-12 -0.142352E-10  0.837055E-13
 -0.285802E-12 -0.483412E-10  0.265078E-12
  0.967081E-13 -0.147874E-09  0.759067E-12
  0.286427E-11 -0.407371E-09  0.196246E-11
  0.136326E-10 -0.101066E-08  0.457028E-11
  0.459235E-10 -0.225840E-08  0.955877E-11
  0.127035E-09 -0.454665E-08  0.178814E-10
  0.303456E-09 -0.824900E-08  0.297631E-10
  0.641249E-09 -0.134911E-07  0.439491E-10
  0.121539E-08 -0.198880E-07  0.563339E-10
  0.208577E-08 -0.264008E-07  0.623791E-10
  0.326276E-08 -0.314658E-07  0.580690E-10
  0.467613E-08 -0.334192E-07  0.434891E-10
  0.616483E-08 -0.310606E-07  0.241069E-10
  0.749916E-08 -0.241006E-07  0.821220E-11
  0.843522E-08 -0.133065E-07  0.562151E-12
  0.878489E-08 -0.328182E-09  0.114386E-12
  0.847450E-08  0.126943E-07 -0.614351E-12
  0.756866E-08  0.236152E-07 -0.939329E-11
  0.624970E-08  0.307657E-07 -0.277134E-10
  0.476071E-08  0.333421E-07 -0.506619E-10
  0.333524E-08  0.315868E-07 -0.688995E-10
  0.214046E-08  0.266583E-07 -0.755755E-10
  0.125232E-08  0.202004E-07 -0.697582E-10
  0.663892E-09  0.137858E-07 -0.556052E-10
  0.316264E-09  0.848173E-08 -0.385101E-10
  0.133833E-09  0.470508E-08 -0.236260E-10
  0.493556E-10  0.235274E-08 -0.128821E-10
  0.152902E-10  0.106021E-08 -0.627342E-11
  0.362704E-11  0.430443E-09 -0.273891E-11
  0.427245E-12  0.157433E-09 -0.107501E-11
 -0.152791E-12  0.518728E-10 -0.380127E-12
 -0.134630E-12  0.154009E-10 -0.121276E-12
  0.442355E-13 -0.141616E-10 -0.587884E-13
  0.134013E-14 -0.482570E-10 -0.186005E-12
 -0.427108E-12 -0.148046E-09 -0.530758E-12
 -0.235153E-11 -0.408836E-09 -0.136349E-11
 -0.885887E-11 -0.101637E-08 -0.314651E-11
 -0.271608E-10 -0.227501E-08 -0.650464E-11
 -0.716043E-10 -0.458651E-08 -0.120011E-10
 -0.166488E-09 -0.833075E-08 -0.196701E-10
 -0.346325E-09 -0.136367E-07 -0.284528E-10
 -0.650574E-09 -0.201163E-07 -0.360573E-10
 -0.111091E-08 -0.267161E-07 -0.394044E-10
 -0.173330E-08 -0.318503E-07 -0.364511E-10
 -0.248082E-08 -0.338317E-07 -0.275238E-10
 -0.326792E-08 -0.314448E-07 -0.159789E-10
 -0.397171E-08 -0.243991E-07 -0.631601E-11
 -0.446146E-08 -0.134738E-07 -0.107792E-11
 -0.463738E-08 -0.339395E-09  0.490261E-12
 -0.446257E-08  0.128405E-07  0.184802E-11
 -0.397535E-08  0.238966E-07  0.618347E-11
 -0.327595E-08  0.311385E-07  0.138062E-10
 -0.249405E-08  0.337498E-07  0.222653E-10
 -0.175067E-08  0.319721E-07  0.279427E-10
 -0.112970E-08  0.269781E-07  0.286944E-10
 -0.667668E-09  0.204347E-07  0.249672E-10
 -0.359550E-09  0.139371E-07  0.187267E-10
 -0.175231E-09  0.856798E-08  0.123176E-10
 -0.765397E-10  0.474808E-08  0.715304E-11
 -0.295210E-10  0.237133E-08  0.369334E-11
 -0.979506E-11  0.106705E-08  0.170392E-11
 -0.264328E-11  0.432508E-09  0.705553E-12
 -0.486189E-12  0.157894E-09  0.263130E-12
  0.336012E-14  0.519168E-10  0.886445E-13
  0.531819E-13  0.153786E-10  0.270424E-13
  0.219811E-12 -0.144103E-10 -0.191990E-12
  0.157473E-12 -0.482260E-10 -0.605820E-12
 -0.121799E-11 -0.145783E-09 -0.172583E-11
 -0.794986E-11 -0.397776E-09 -0.443093E-11
 -0.314317E-10 -0.979265E-09 -0.102288E-10
 -0.984391E-10 -0.217477E-08 -0.211677E-10
 -0.262348E-09 -0.435694E-08 -0.391118E-10
 -0.613576E-09 -0.787498E-08 -0.641633E-10
 -0.128052E-08 -0.128429E-07 -0.929854E-10
 -0.240966E-08 -0.188942E-07 -0.117444E-09
 -0.411899E-08 -0.250496E-07 -0.126846E-09
 -0.643120E-08 -0.298356E-07 -0.114655E-09
 -0.921096E-08 -0.316826E-07 -0.822637E-10
 -0.121420E-07 -0.294527E-07 -0.418723E-10
 -0.147692E-07 -0.228635E-07 -0.104030E-10
 -0.166067E-07 -0.126338E-07  0.274426E-11
 -0.172805E-07 -0.325649E-09  0.101199E-11
 -0.166477E-07  0.120266E-07 -0.693255E-12
 -0.148447E-07  0.223827E-07  0.122376E-10
 -0.122406E-07  0.291602E-07  0.426859E-10
 -0.931858E-08  0.316038E-07  0.810901E-10
 -0.653418E-08  0.299497E-07  0.111044E-09
 -0.420684E-08  0.252958E-07  0.121264E-09
 -0.247682E-08  0.191933E-07  0.111068E-09
 -0.132655E-08  0.131251E-07  0.870602E-10
 -0.641799E-09  0.809803E-08  0.595147E-10
 -0.277785E-09  0.450913E-08  0.359732E-10
 -0.105947E-09  0.226574E-08  0.193207E-10
 -0.346632E-10  0.102732E-08  0.927143E-11
 -0.917343E-11  0.420329E-09  0.399162E-11
 -0.162180E-11  0.155222E-09  0.154659E-11
  0.431799E-13  0.517585E-10  0.540579E-12
  0.192934E-12  0.155947E-10  0.170751E-12
  0.186031E-12 -0.148033E-10 -0.289419E-12
 -0.218531E-12 -0.479341E-10 -0.907082E-12
 -0.313930E-11 -0.140843E-09 -0.256636E-11
 -0.153468E-10 -0.375146E-09 -0.654333E-11
 -0.552589E-10 -0.905014E-09 -0.149959E-10
 -0.165212E-09 -0.197624E-08 -0.307877E-10
 -0.428440E-09 -0.390482E-08 -0.563628E-10
 -0.984773E-09 -0.697985E-08 -0.914264E-10
 -0.203212E-08 -0.112853E-07 -0.130392E-09
 -0.379681E-08 -0.164975E-07 -0.161005E-09
 -0.646312E-08 -0.217778E-07 -0.168385E-09
 -0.100707E-07 -0.258739E-07 -0.142639E-09
 -0.144156E-07 -0.274478E-07 -0.891624E-10
 -0.190091E-07 -0.255172E-07 -0.283099E-10
 -0.231389E-07 -0.198215E-07  0.128596E-10
 -0.260359E-07 -0.109628E-07  0.202680E-10
 -0.271031E-07 -0.289336E-09  0.161435E-11
 -0.261109E-07  0.104241E-07 -0.171208E-10
 -0.232751E-07  0.193965E-07 -0.924531E-11
 -0.191832E-07  0.252599E-07  0.322941E-10
 -0.146000E-07  0.273783E-07  0.919870E-10
 -0.102418E-07  0.259726E-07  0.143947E-09
 -0.660464E-08  0.219907E-07  0.168063E-09
 -0.390206E-08  0.167562E-07  0.159511E-09
 -0.210266E-08  0.115297E-07  0.128452E-09
 -0.102737E-08  0.717357E-08  0.896443E-10
 -0.451572E-09  0.403754E-08  0.550502E-10
 -0.176487E-09  0.205600E-08  0.299742E-10
 -0.601782E-10  0.947419E-09  0.145606E-10
 -0.172622E-10  0.395199E-09  0.633991E-11
 -0.380238E-11  0.149307E-09  0.248269E-11
 -0.421597E-12  0.511312E-10  0.876635E-12
  0.131419E-12  0.158862E-10  0.279578E-12
 -0.137089E-12 -0.149985E-10 -0.335479E-12
 -0.132880E-11 -0.467476E-10 -0.104073E-11
 -0.659075E-11 -0.132633E-09 -0.291392E-11
 -0.251118E-10 -0.342312E-09 -0.734817E-11
 -0.804756E-10 -0.803050E-09 -0.166415E-10
 -0.224883E-09 -0.171144E-08 -0.337140E-10
 -0.558403E-09 -0.331210E-08 -0.607540E-10
 -0.124646E-08 -0.581883E-08 -0.966246E-10
 -0.252132E-08 -0.927807E-08 -0.134075E-09
 -0.464862E-08 -0.134192E-07 -0.158945E-09
 -0.784718E-08 -0.175802E-07 -0.155119E-09
 -0.121696E-07 -0.207867E-07 -0.114244E-09
 -0.173824E-07 -0.219975E-07 -0.454206E-10
 -0.229093E-07 -0.204366E-07  0.239475E-10
 -0.278950E-07 -0.158812E-07  0.605978E-10
 -0.314033E-07 -0.879099E-08  0.488839E-10
 -0.327001E-07 -0.237170E-09  0.138943E-11
 -0.315003E-07  0.834998E-08 -0.457240E-10
 -0.280698E-07  0.155342E-07 -0.565655E-10
 -0.231301E-07  0.202269E-07 -0.188038E-10
 -0.176129E-07  0.219397E-07  0.502955E-10
 -0.123800E-07  0.208637E-07  0.118448E-09
 -0.801859E-08  0.177487E-07  0.158160E-09
 -0.477442E-08  0.136248E-07  0.160768E-09
 -0.260480E-08  0.947321E-08  0.134952E-09
 -0.129659E-08  0.597448E-08  0.969285E-10
 -0.585612E-09  0.341957E-08  0.607998E-10
 -0.238208E-09  0.177662E-08  0.336817E-10
 -0.863503E-10  0.838064E-09  0.166057E-10
 -0.274380E-10  0.359055E-09  0.732703E-11
 -0.741592E-11  0.139785E-09  0.290467E-11
 -0.159023E-11  0.494826E-10  0.103754E-11
 -0.210790E-12  0.159368E-10  0.334612E-12
 -0.709640E-12 -0.146252E-10 -0.329231E-12
 -0.303930E-11 -0.439854E-10 -0.100830E-11
 -0.111954E-10 -0.120504E-09 -0.278490E-11
 -0.362965E-10 -0.300696E-09 -0.692004E-11
 -0.104937E-09 -0.683406E-09 -0.154181E-10
 -0.273087E-09 -0.141454E-08 -0.306522E-10
 -0.644120E-09 -0.266654E-08 -0.539807E-10
 -0.138453E-08 -0.457829E-08 -0.833071E-10
 -0.272439E-08 -0.715986E-08 -0.110671E-09
 -0.492528E-08 -0.101952E-07 -0.122224E-09
 -0.820390E-08 -0.132003E-07 -0.103630E-09
 -0.126159E-07 -0.154824E-07 -0.499298E-10
 -0.179340E-07 -0.163056E-07  0.255579E-10
 -0.235825E-07 -0.151149E-07  0.918227E-10
 -0.286918E-07 -0.117394E-07  0.114178E-09
 -0.322968E-07 -0.650056E-08  0.781966E-10
 -0.336323E-07 -0.178589E-09  0.686463E-12
 -0.323993E-07  0.616857E-08 -0.764273E-10
 -0.288757E-07  0.114781E-07 -0.111425E-09
 -0.238127E-07  0.149557E-07 -0.880065E-10
 -0.181724E-07  0.162588E-07 -0.210702E-10
 -0.128315E-07  0.155349E-07  0.544283E-10
 -0.837814E-08  0.133208E-07  0.107543E-09
 -0.505245E-08  0.103446E-07  0.125216E-09