<?xml version="1.0"?>
 <VTKFile type="ImageData" version="0.1" byte_order="LittleEndian">
   <ImageData WholeExtent="           0          32           0          32           0          32 " Origin="  -8.0000000000000000       -8.0000000000000000       -8.0000000000000000      " Spacing="  0.50000000000000000       0.50000000000000000       0.50000000000000000      ">
   <Piece Extent="           0          32           0          32           0          32 ">
   <PointData Scalars="scalars">
   <DataArray Name="vectors" type="Float64" NumberOfComponents="3" Format="ascii">
  0.648806E-13 -0.671910E-13  0.408471E-17
  0.196210E-12 -0.184207E-12 -0.193006E-15
  0.540806E-12 -0.456681E-12 -0.113460E-14
  0.135903E-11 -0.102378E-11 -0.443746E-14
  0.312059E-11 -0.207435E-11 -0.139334E-13
  0.655318E-11 -0.379608E-11 -0.371843E-13
  0.125998E-10 -0.626219E-11 -0.863335E-13
  0.222171E-10 -0.928985E-11 -0.176894E-12
  0.359974E-10 -0.123371E-10 -0.322358E-12
  0.537302E-10 -0.145694E-10 -0.524579E-12
  0.741384E-10 -0.151476E-10 -0.763122E-12
  0.950285E-10 -0.136578E-10 -0.989999E-12
  0.113911E-09 -0.104380E-10 -0.113640E-11
  0.128835E-09 -0.652616E-11 -0.113317E-11
  0.138972E-09 -0.315236E-11 -0.938942E-12
  0.144585E-09 -0.103355E-11 -0.563111E-12
  0.146401E-09  0.524326E-13 -0.711939E-13
  0.144813E-09  0.108663E-11  0.432424E-12
  0.139509E-09  0.308376E-11  0.839615E-12
  0.129773E-09  0.636657E-11  0.107420E-11
  0.115250E-09  0.102931E-10  0.111512E-11
  0.966371E-10  0.136410E-10  0.995508E-12
  0.757959E-10  0.153111E-10  0.782028E-12
  0.552145E-10  0.148827E-10  0.545926E-12
  0.371635E-10  0.127158E-10  0.339880E-12
  0.230266E-10  0.964555E-11  0.188665E-12
  0.130987E-10  0.653949E-11  0.930696E-13
  0.682711E-11  0.398094E-11  0.405243E-13
  0.325485E-11  0.218143E-11  0.153752E-13
  0.141788E-11  0.107812E-11  0.498546E-14
  0.563852E-12  0.481073E-12  0.131334E-14
  0.204289E-12  0.193894E-12  0.243506E-15
  0.674107E-13  0.706061E-13  0.790365E-17
  0.170853E-12 -0.195725E-12  0.214580E-15
  0.522110E-12 -0.542157E-12  0.517347E-16
  0.145484E-11 -0.135965E-11 -0.163559E-14
  0.370264E-11 -0.308616E-11 -0.886958E-14
  0.861494E-11 -0.634183E-11 -0.318156E-13
  0.183420E-10 -0.117822E-10 -0.913797E-13
  0.357836E-10 -0.197576E-10 -0.222987E-12
  0.640640E-10 -0.298208E-10 -0.474152E-12
  0.105450E-09 -0.403385E-10 -0.889953E-12
  0.159975E-09 -0.485957E-10 -0.148424E-11
  0.224439E-09 -0.516655E-10 -0.220465E-11
  0.292545E-09 -0.478481E-10 -0.291101E-11
  0.356501E-09 -0.378867E-10 -0.339034E-11
  0.409440E-09 -0.249697E-10 -0.341861E-11
  0.447379E-09 -0.131479E-10 -0.285291E-11
  0.469544E-09 -0.494863E-11 -0.171295E-11
  0.476909E-09  0.121356E-12 -0.203952E-12
  0.470203E-09  0.503274E-11  0.133963E-11
  0.448905E-09  0.128817E-10  0.257108E-11
  0.412043E-09  0.244417E-10  0.325446E-11
  0.360150E-09  0.374124E-10  0.333545E-11
  0.296870E-09  0.477594E-10  0.293294E-11
  0.228843E-09  0.521106E-10  0.226401E-11
  0.163878E-09  0.494789E-10  0.154915E-11
  0.108485E-09  0.414095E-10  0.942494E-12
  0.661496E-10  0.308233E-10  0.509149E-12
  0.370554E-10  0.205342E-10  0.242891E-12
  0.190323E-10  0.122958E-10  0.101199E-12
  0.894921E-11  0.663661E-11  0.360441E-13
  0.384714E-11  0.323447E-11  0.104566E-13
  0.151064E-11  0.142544E-11  0.215493E-14
  0.541334E-12  0.567975E-12  0.943180E-16
  0.176757E-12  0.204708E-12 -0.180053E-15
  0.406662E-12 -0.519635E-12  0.114241E-14
  0.125726E-11 -0.145493E-11  0.189854E-14
  0.354744E-11 -0.369423E-11  0.522682E-15
  0.914984E-11 -0.850209E-11 -0.115071E-13
  0.215852E-10 -0.177242E-10 -0.577577E-13
  0.466254E-10 -0.334358E-10 -0.190082E-12
  0.923238E-10 -0.569702E-10 -0.500972E-12
  0.167814E-09 -0.874189E-10 -0.112154E-11
  0.280499E-09 -0.120287E-09 -0.218676E-11
  0.432167E-09 -0.147519E-09 -0.375780E-11
  0.615737E-09 -0.159885E-09 -0.571887E-11
  0.814859E-09 -0.151370E-09 -0.770223E-11
  0.100753E-08 -0.123204E-09 -0.911339E-11
  0.117252E-08 -0.843326E-10 -0.929906E-11
  0.129517E-08 -0.469056E-10 -0.781918E-11
  0.136926E-08 -0.190121E-10 -0.470119E-11
  0.139433E-08  0.188864E-12 -0.524522E-12
  0.137115E-08  0.189669E-10  0.374367E-11
  0.129938E-08  0.459347E-10  0.710327E-11
  0.117944E-08  0.826952E-10  0.889266E-11
  0.101695E-08  0.121764E-09  0.899243E-11
  0.825788E-09  0.151019E-09  0.777928E-11
  0.626680E-09  0.161004E-09  0.588917E-11
  0.441727E-09  0.149823E-09  0.393766E-11
  0.287841E-09  0.123089E-09  0.233012E-11
  0.172798E-09  0.900302E-10  0.121614E-11
  0.953265E-10  0.589789E-10  0.554417E-12
  0.482355E-10  0.347529E-10  0.216311E-12
  0.223547E-10  0.184730E-10  0.690046E-13
  0.947786E-11  0.887483E-11  0.157228E-13
  0.367212E-11  0.385768E-11  0.848673E-15
  0.129945E-11  0.151827E-11 -0.151361E-14
  0.419358E-12  0.541368E-12 -0.105159E-14
  0.874707E-12 -0.125772E-11  0.421777E-14
  0.273879E-11 -0.356649E-11  0.913624E-14
  0.783635E-11 -0.917667E-11  0.140302E-13
  0.204989E-10 -0.214166E-10  0.432306E-14
  0.490668E-10 -0.453094E-10 -0.671969E-13
  0.107565E-09 -0.867843E-10 -0.314045E-12
  0.216179E-09 -0.150177E-09 -0.952268E-12
  0.398806E-09 -0.234066E-09 -0.230715E-11
  0.676445E-09 -0.327153E-09 -0.474080E-11
  0.105733E-08 -0.407620E-09 -0.846435E-11
  0.152774E-08 -0.449130E-09 -0.132647E-10
  0.204926E-08 -0.432959E-09 -0.182788E-10
  0.256601E-08 -0.360011E-09 -0.220139E-10
  0.301995E-08 -0.253320E-09 -0.227554E-10
  0.336621E-08 -0.146201E-09 -0.192906E-10
  0.358015E-08 -0.620060E-10 -0.116176E-10
  0.365347E-08  0.148326E-13 -0.120867E-11
  0.358530E-08  0.610125E-10  0.941849E-11
  0.337725E-08  0.142997E-09  0.176664E-10
  0.303736E-08  0.248616E-09  0.218644E-10
  0.258895E-08  0.355992E-09  0.217932E-10
  0.207517E-08  0.431824E-09  0.185157E-10
  0.155316E-08  0.451752E-09  0.137079E-10
  0.107917E-08  0.413214E-09  0.891600E-11
  0.692975E-09  0.333963E-09  0.509484E-11
  0.409882E-09  0.240380E-09  0.253834E-11
  0.222770E-09  0.154997E-09  0.108188E-11
  0.111055E-09  0.899166E-10  0.377268E-12
  0.507138E-10  0.470725E-10  0.941669E-13
  0.211914E-10  0.222848E-10  0.574045E-14
  0.809572E-11  0.955286E-11 -0.107607E-13
  0.282576E-11  0.371038E-11 -0.822182E-14
  0.900165E-12  0.130641E-11 -0.400356E-14
  0.169915E-11 -0.278198E-11  0.126310E-13
  0.539721E-11 -0.799341E-11  0.307342E-13
  0.156700E-10 -0.208525E-10  0.610888E-13
  0.416059E-10 -0.493756E-10  0.868595E-13
  0.101090E-09 -0.106023E-09  0.295871E-13
  0.224922E-09 -0.206138E-09 -0.327373E-12
  0.458673E-09 -0.362058E-09 -0.143270E-11
  0.858250E-09 -0.572585E-09 -0.400997E-11
  0.147585E-08 -0.811747E-09 -0.892985E-11
  0.233743E-08 -0.102558E-08 -0.168042E-10
  0.342000E-08 -0.114588E-08 -0.273377E-10
  0.464182E-08 -0.112091E-08 -0.387280E-10
  0.587530E-08 -0.947563E-09 -0.476091E-10
  0.697988E-08 -0.680287E-09 -0.499390E-10
  0.783835E-08 -0.402673E-09 -0.427229E-10
  0.837720E-08 -0.175839E-09 -0.257859E-10
  0.856367E-08 -0.119460E-11 -0.248883E-11
  0.839017E-08  0.171197E-09  0.212762E-10
  0.786520E-08  0.393252E-09  0.394429E-10
  0.702067E-08  0.667897E-09  0.482184E-10
  0.592725E-08  0.937313E-09  0.473002E-10
  0.469895E-08  0.111778E-08  0.393634E-10
  0.347488E-08  0.115167E-08  0.283754E-10
  0.238378E-08  0.103828E-08  0.178247E-10
  0.151044E-08  0.827182E-09  0.971559E-11
  0.881129E-09  0.586806E-09  0.451692E-11
  0.472127E-09  0.372826E-09  0.171425E-11
  0.231966E-09  0.213073E-09  0.463586E-12
  0.104376E-09  0.109888E-09  0.280766E-13
  0.429717E-10  0.512585E-10 -0.655077E-13
  0.161752E-10  0.216591E-10 -0.542092E-13
  0.556308E-11  0.829812E-11 -0.288284E-13
  0.174728E-11  0.288362E-11 -0.121915E-13
  0.297808E-11 -0.562757E-11  0.322266E-13
  0.960726E-11 -0.163967E-10  0.839237E-13
  0.283312E-10 -0.433978E-10  0.187146E-12
  0.763937E-10 -0.104290E-09  0.342678E-12
  0.188441E-09 -0.227282E-09  0.453357E-12
  0.425459E-09 -0.448392E-09  0.168106E-12
  0.879877E-09 -0.798742E-09 -0.133385E-11
  0.166849E-08 -0.128032E-08 -0.549045E-11
  0.290546E-08 -0.183839E-08 -0.141773E-10
  0.465624E-08 -0.235091E-08 -0.289291E-10
  0.688786E-08 -0.265742E-08 -0.495593E-10
  0.944302E-08 -0.262994E-08 -0.727497E-10
  0.120603E-07 -0.225093E-08 -0.917003E-10
  0.144378E-07 -0.163909E-08 -0.978731E-10
  0.163107E-07 -0.986661E-09 -0.846336E-10
  0.174993E-07 -0.438997E-09 -0.512419E-10
  0.179135E-07 -0.531960E-11 -0.456343E-11
  0.175286E-07  0.423820E-09  0.430124E-10
  0.163698E-07  0.962074E-09  0.787593E-10
  0.145250E-07  0.160937E-08  0.949665E-10
  0.121681E-07  0.222710E-08  0.914479E-10
  0.955886E-08  0.262242E-08  0.742329E-10
  0.699701E-08  0.266956E-08  0.517261E-10
  0.474699E-08  0.237792E-08  0.309864E-10
  0.297229E-08  0.187107E-08  0.157301E-10
  0.171220E-08  0.131021E-08  0.647766E-11
  0.905323E-09  0.821191E-09  0.187519E-11
  0.438656E-09  0.462721E-09  0.905817E-13
  0.194543E-09  0.235194E-09 -0.345254E-12
  0.789078E-10  0.108106E-09 -0.303234E-12
  0.292531E-10  0.450158E-10 -0.174667E-12
  0.990735E-11  0.170012E-10 -0.805533E-13
  0.306438E-11  0.582677E-11 -0.314834E-13
  0.469963E-11 -0.104282E-10  0.718956E-13
  0.154168E-10 -0.308291E-10  0.195737E-12
  0.462137E-10 -0.828271E-10  0.467156E-12
  0.126598E-09 -0.202040E-09  0.958515E-12
  0.317024E-09 -0.446809E-09  0.162036E-11
  0.726020E-09 -0.893972E-09  0.199798E-11
  0.152154E-08 -0.161376E-08  0.789292E-12
  0.292097E-08 -0.261884E-08 -0.454581E-11
  0.514441E-08 -0.380321E-08 -0.176261E-10
  0.832994E-08 -0.491413E-08 -0.418265E-10
  0.124378E-07 -0.560788E-08 -0.776671E-10
  0.171942E-07 -0.559957E-08 -0.119841E-09
  0.221188E-07 -0.483464E-08 -0.156126E-09
  0.266385E-07 -0.355281E-08 -0.170308E-09
  0.302315E-07 -0.216021E-08 -0.149232E-09
  0.325288E-07 -0.971719E-09 -0.907366E-10
  0.333334E-07 -0.157451E-10 -0.741922E-11
  0.325871E-07  0.931794E-09  0.774402E-10
  0.303472E-07  0.210324E-08  0.139960E-09
  0.268052E-07  0.348805E-08  0.166065E-09
  0.223208E-07  0.478418E-08  0.156314E-09
  0.174072E-07  0.558354E-08  0.122831E-09
  0.126354E-07  0.563199E-08  0.816534E-10
  0.849216E-08  0.496788E-08  0.454804E-10
  0.526261E-08  0.386784E-08  0.203225E-10
  0.299759E-08  0.267750E-08  0.622685E-11
  0.156580E-08  0.165747E-08  0.115024E-12
  0.748820E-09  0.921645E-09 -0.157468E-11
  0.327503E-09  0.461962E-09 -0.144769E-11
  0.130894E-09  0.209288E-09 -0.897414E-12
  0.477822E-10  0.858723E-10 -0.448629E-12
  0.159259E-10  0.319564E-10 -0.191055E-12
  0.484585E-11  0.107960E-10 -0.709781E-13
  0.665483E-11 -0.177265E-10  0.141470E-12
  0.222306E-10 -0.532194E-10  0.398732E-12
  0.677882E-10 -0.145196E-09  0.997051E-12
  0.188703E-09 -0.359529E-09  0.218876E-11
  0.479627E-09 -0.806585E-09  0.413672E-11
  0.111350E-08 -0.163568E-08  0.645715E-11
  0.236272E-08 -0.298945E-08  0.741063E-11
  0.458680E-08 -0.490600E-08  0.303592E-11
  0.815920E-08 -0.719608E-08 -0.129103E-10
  0.133282E-07 -0.937931E-08 -0.470246E-10
  0.200538E-07 -0.107839E-07 -0.101782E-09
  0.279043E-07 -0.108366E-07 -0.170016E-09
  0.360914E-07 -0.940635E-08 -0.232217E-09
  0.436531E-07 -0.694371E-08 -0.260889E-09
  0.496964E-07 -0.423893E-08 -0.232599E-09
  0.535759E-07 -0.191506E-08 -0.142382E-09
  0.549384E-07 -0.369659E-10 -0.106254E-10
  0.536766E-07  0.182646E-08  0.123479E-09
  0.498941E-07  0.412146E-08  0.219795E-09
  0.439342E-07  0.681566E-08  0.255602E-09
  0.364274E-07  0.930878E-08  0.233457E-09
  0.282542E-07  0.108058E-07  0.175200E-09
  0.203752E-07  0.108288E-07  0.108160E-09
  0.135897E-07  0.947905E-08  0.526476E-10
  0.834841E-08  0.731517E-08  0.169343E-10
  0.470873E-08  0.501334E-08 -0.598686E-12
  0.243280E-08  0.306886E-08 -0.614206E-11
  0.114946E-08  0.168560E-08 -0.588661E-11
  0.496110E-09  0.833732E-09 -0.391587E-11
  0.195449E-09  0.372424E-09 -0.211628E-11
  0.702513E-10  0.150577E-09 -0.977616E-12
  0.230316E-10  0.551980E-10 -0.394910E-12
  0.688701E-11  0.183678E-10 -0.141159E-12
  0.841502E-11 -0.277056E-10  0.247546E-12
  0.286637E-10 -0.845293E-10  0.717539E-12
  0.889847E-10 -0.234259E-09  0.185830E-11
  0.251775E-09 -0.588793E-09  0.427250E-11
  0.649385E-09 -0.133949E-08  0.862731E-11
  0.152741E-08 -0.275130E-08  0.150037E-10
  0.327846E-08 -0.508650E-08  0.215723E-10
  0.642854E-08 -0.843210E-08  0.229345E-10
  0.115337E-07 -0.124753E-07  0.946060E-11
  0.189764E-07 -0.163765E-07 -0.303085E-10
  0.287205E-07 -0.189340E-07 -0.102872E-09
  0.401495E-07 -0.191009E-07 -0.200694E-09
  0.521100E-07 -0.166140E-07 -0.296254E-09
  0.631814E-07 -0.122647E-07 -0.347924E-09
  0.720402E-07 -0.747344E-08 -0.318341E-09
  0.777297E-07 -0.336965E-08 -0.197338E-09
  0.797288E-07 -0.726182E-10 -0.133014E-10
  0.778781E-07  0.320015E-08  0.173900E-09
  0.723305E-07  0.725716E-08  0.303035E-09
  0.635922E-07  0.120346E-07  0.342512E-09
  0.525985E-07  0.164411E-07  0.299131E-09
  0.406559E-07  0.190466E-07  0.208291E-09
  0.291835E-07  0.190116E-07  0.111516E-09
  0.193518E-07  0.165482E-07  0.375666E-10
  0.118044E-07  0.126791E-07 -0.450565E-11
  0.660259E-08  0.861481E-08 -0.200944E-10
  0.337832E-08  0.522091E-08 -0.201940E-10
  0.157861E-08  0.283533E-08 -0.144431E-10
  0.672852E-09  0.138494E-08 -0.844264E-11
  0.261393E-09  0.610266E-09 -0.422844E-11
  0.925078E-10  0.243176E-09 -0.185458E-11
  0.298161E-10  0.877944E-10 -0.720763E-12
  0.875095E-11  0.287607E-10 -0.249936E-12
  0.942643E-11 -0.399311E-10  0.386483E-12
  0.328088E-10 -0.123881E-09  0.114690E-11
  0.103817E-09 -0.348803E-09  0.305424E-11
  0.298713E-09 -0.889734E-09  0.726750E-11
  0.781783E-09 -0.205158E-08  0.153470E-10
  0.186206E-08 -0.426505E-08  0.284440E-10
  0.403952E-08 -0.796867E-08  0.453610E-10
  0.799123E-08 -0.133292E-07  0.597683E-10
  0.144399E-07 -0.198658E-07  0.584186E-10
  0.238887E-07 -0.262251E-07  0.235459E-10
  0.362977E-07 -0.304338E-07 -0.580088E-10
  0.508671E-07 -0.307477E-07 -0.180987E-09
  0.660996E-07 -0.267118E-07 -0.311836E-09
  0.801607E-07 -0.196295E-07 -0.394512E-09
  0.913673E-07 -0.118662E-07 -0.375473E-09
  0.985364E-07 -0.530350E-08 -0.235728E-09
  0.101047E-06 -0.122063E-09 -0.143720E-10
  0.987186E-07  0.502067E-08  0.210663E-09
  0.917252E-07  0.115093E-07  0.359826E-09
  0.806701E-07  0.192525E-07  0.390028E-09
  0.667086E-07  0.264294E-07  0.316295E-09
  0.515012E-07  0.306580E-07  0.190019E-09
  0.368794E-07  0.305564E-07  0.674366E-10
  0.243616E-07  0.264979E-07 -0.162493E-10
  0.147816E-07  0.201891E-07 -0.539124E-10
  0.821119E-08  0.136178E-07 -0.575400E-10
  0.416594E-08  0.818021E-08 -0.445240E-10
  0.192700E-08  0.439677E-08 -0.282610E-10
  0.811635E-09  0.212254E-08 -0.153827E-10
  0.310996E-09  0.923147E-09 -0.733412E-11
  0.108343E-09  0.362638E-09 -0.309911E-11
  0.343015E-10  0.128936E-09 -0.116894E-11
  0.986686E-11  0.415633E-10 -0.395344E-12
  0.924367E-11 -0.532849E-10  0.538315E-12
  0.329876E-10 -0.168171E-09  0.162979E-11
  0.106623E-09 -0.481092E-09  0.444021E-11
  0.312333E-09 -0.124503E-08  0.108506E-10
  0.829790E-09 -0.290803E-08  0.236706E-10
  0.200102E-08 -0.611394E-08  0.457650E-10
  0.438461E-08 -0.115332E-07  0.775087E-10
  0.874150E-08 -0.194442E-07  0.112705E-09
  0.158851E-07 -0.291574E-07  0.135113E-09
  0.263748E-07 -0.386528E-07  0.120272E-09
  0.401405E-07 -0.449432E-07  0.460324E-10
  0.562425E-07 -0.453701E-07 -0.884733E-10
  0.729612E-07 -0.392404E-07 -0.248048E-09
  0.882438E-07 -0.285719E-07 -0.365719E-09
  0.100285E-06 -0.170226E-07 -0.371673E-09
  0.107903E-06 -0.748442E-08 -0.240775E-09
  0.110548E-06 -0.177517E-09 -0.131692E-10
  0.108081E-06  0.706943E-08  0.218095E-09
  0.100641E-06  0.164920E-07  0.358179E-09
  0.887616E-07  0.280062E-07  0.362747E-09
  0.735941E-07  0.388129E-07  0.252799E-09
  0.569137E-07  0.452288E-07  0.963131E-10
  0.407652E-07  0.451184E-07 -0.389848E-10
  0.268881E-07  0.390515E-07 -0.115934E-09
  0.162591E-07  0.296312E-07 -0.133472E-09
  0.898395E-08  0.198670E-07 -0.112776E-09
  0.452475E-08  0.118425E-07 -0.782515E-10
  0.207340E-08  0.630606E-08 -0.465256E-10
  0.863246E-09  0.301128E-08 -0.242023E-10
  0.326195E-09  0.129353E-08 -0.111479E-10
  0.111769E-09  0.501151E-09 -0.458065E-11
  0.347026E-10  0.175496E-09 -0.168719E-11
  0.975664E-11  0.556523E-10 -0.558886E-12
  0.779221E-11 -0.662043E-10  0.665959E-12
  0.286953E-10 -0.212598E-09  0.205086E-11
  0.951257E-10 -0.617767E-09  0.569266E-11
  0.284399E-09 -0.162104E-08  0.142056E-10
  0.767976E-09 -0.383234E-08  0.317538E-10
  0.187582E-08 -0.814079E-08  0.632474E-10
  0.415031E-08 -0.154886E-07  0.111377E-09
  0.833110E-08 -0.262906E-07  0.171318E-09
  0.152016E-07 -0.396191E-07  0.225586E-09
  0.252752E-07 -0.526712E-07  0.243846E-09
  0.384205E-07 -0.612655E-07  0.194946E-09
  0.536360E-07 -0.616696E-07  0.687736E-10
  0.691849E-07 -0.529451E-07 -0.103873E-09
  0.831016E-07 -0.380248E-07 -0.252226E-09
  0.938012E-07 -0.221742E-07 -0.296475E-09
  0.100411E-06 -0.950730E-08 -0.203203E-09
  0.102661E-06 -0.224955E-09 -0.994135E-11
  0.100533E-06  0.896769E-08  0.186249E-09
  0.940601E-07  0.214583E-07  0.286811E-09
  0.835043E-07  0.372427E-07  0.250200E-09
  0.697064E-07  0.523416E-07  0.106357E-09
  0.542145E-07  0.614569E-07 -0.658818E-10
  0.389774E-07  0.614903E-07 -0.194404E-09
  0.257443E-07  0.532072E-07 -0.246153E-09
  0.155497E-07  0.402614E-07 -0.229634E-09
  0.855987E-08  0.268652E-07 -0.175587E-09
  0.428402E-08  0.159089E-07 -0.114832E-09
  0.194554E-08  0.840163E-08 -0.655543E-10
  0.800498E-09  0.397237E-08 -0.330683E-10
  0.297996E-09  0.168677E-08 -0.148565E-10
  0.100228E-09  0.644936E-09 -0.597585E-11
  0.304170E-10  0.222525E-09 -0.215994E-11
  0.831508E-11  0.694190E-10 -0.703351E-12
  0.548983E-11 -0.771797E-10  0.723165E-12
  0.211273E-10 -0.252066E-09  0.225861E-11
  0.724006E-10 -0.743399E-09  0.636399E-11
  0.221966E-09 -0.197596E-08  0.161419E-10
  0.610929E-09 -0.472290E-08  0.367460E-10
  0.151349E-08 -0.101248E-07  0.747675E-10
  0.338209E-08 -0.194065E-07  0.135185E-09
  0.683054E-08 -0.331276E-07  0.215389E-09
  0.124938E-07 -0.501124E-07  0.298821E-09
  0.207472E-07 -0.667349E-07  0.352597E-09
  0.313823E-07 -0.775530E-07  0.339378E-09
  0.434399E-07 -0.777164E-07  0.239697E-09
  0.553899E-07 -0.660795E-07  0.752490E-10
  0.656480E-07 -0.466364E-07 -0.884527E-10
  0.731405E-07 -0.264490E-07 -0.170937E-09
  0.775281E-07 -0.109552E-07 -0.133516E-09
  0.789539E-07 -0.250614E-09 -0.588327E-11
  0.775591E-07  0.103266E-07  0.123564E-09
  0.732348E-07  0.255637E-07  0.165016E-09
  0.658423E-07  0.456330E-07  0.857575E-10
  0.556924E-07  0.652822E-07 -0.778586E-10
  0.438174E-07  0.774118E-07 -0.245171E-09
  0.317746E-07  0.778118E-07 -0.348618E-09
  0.210949E-07  0.673997E-07 -0.364245E-09
  0.127611E-07  0.509203E-07 -0.310479E-09
  0.701074E-08  0.338538E-07 -0.225065E-09
  0.348945E-08  0.199386E-07 -0.142031E-09
  0.157036E-08  0.104552E-07 -0.789621E-10
  0.637823E-09  0.490026E-08 -0.389973E-10
  0.233361E-09  0.205921E-08 -0.172086E-10
  0.767374E-10  0.777819E-09 -0.681275E-11
  0.226135E-10  0.264657E-09 -0.242693E-11
  0.594939E-11  0.812671E-10 -0.779630E-12
  0.309121E-11 -0.852669E-10  0.670447E-12
  0.127544E-10 -0.282797E-09  0.211724E-11
  0.458343E-10 -0.845100E-09  0.603453E-11
  0.145295E-09 -0.227151E-08  0.154936E-10
  0.409537E-09 -0.548026E-08  0.357399E-10
  0.103157E-08 -0.118385E-07  0.738162E-10
  0.233013E-08 -0.228285E-07  0.135864E-09
  0.473242E-08 -0.391427E-07  0.221405E-09
  0.866180E-08 -0.593748E-07  0.316960E-09
  0.143210E-07 -0.791327E-07  0.392102E-09
  0.214546E-07 -0.918040E-07  0.409490E-09
  0.292554E-07 -0.915176E-07  0.344814E-09
  0.365649E-07 -0.769921E-07  0.208163E-09
  0.423340E-07 -0.533031E-07  0.551152E-10
  0.460744E-07 -0.292810E-07 -0.476303E-10
  0.479626E-07 -0.116257E-07 -0.601073E-10
  0.484864E-07 -0.250236E-09 -0.244961E-11
  0.479112E-07  0.109561E-07  0.557524E-10
  0.460147E-07  0.282633E-07  0.439323E-10
  0.423232E-07  0.520992E-07 -0.600608E-10
  0.366388E-07  0.760044E-07 -0.217165E-09
  0.294097E-07  0.911090E-07 -0.359469E-09
  0.216528E-07  0.920745E-07 -0.428776E-09
  0.145177E-07  0.798998E-07 -0.412919E-09
  0.882360E-08  0.603234E-07 -0.335846E-09
  0.484646E-08  0.400009E-07 -0.236069E-09
  0.240028E-08  0.234591E-07 -0.145767E-09
  0.106965E-08  0.122306E-07 -0.796799E-10
  0.427930E-09  0.569085E-08 -0.388057E-10
  0.153243E-09  0.237042E-08 -0.169167E-10
  0.489207E-10  0.886026E-09 -0.662340E-11
  0.138350E-10  0.297791E-09 -0.233513E-11
  0.343467E-11  0.901466E-10 -0.742639E-12
  0.129211E-11 -0.903136E-10  0.492933E-12
  0.599432E-11 -0.303237E-09  0.156937E-11
  0.230896E-10 -0.915565E-09  0.450939E-11
  0.764919E-10 -0.248209E-08  0.116757E-10
  0.221994E-09 -0.603064E-08  0.271749E-10
  0.570011E-09 -0.131015E-07  0.566809E-10
  0.130260E-08 -0.253754E-07  0.105520E-09
  0.265937E-08 -0.436464E-07  0.174322E-09
  0.486336E-08 -0.663253E-07  0.254390E-09
  0.798351E-08 -0.884156E-07  0.323101E-09
  0.117931E-07 -0.102386E-06  0.350199E-09
  0.157355E-07 -0.101575E-06  0.316554E-09
  0.190912E-07 -0.846380E-07  0.225245E-09
  0.213127E-07 -0.575745E-07  0.110761E-09
  0.223204E-07 -0.306781E-07  0.221052E-10
  0.225184E-07 -0.116624E-07 -0.115848E-10
  0.224682E-07 -0.234099E-09 -0.465046E-12
  0.224409E-07  0.109878E-07  0.102947E-10
  0.222029E-07  0.295714E-07 -0.250617E-10
  0.212080E-07  0.562144E-07 -0.117868E-09
  0.190389E-07  0.834910E-07 -0.238930E-09
  0.157457E-07  0.101070E-06 -0.337273E-09
  0.118496E-07  0.102650E-06 -0.375656E-09
  0.805894E-08  0.892495E-07 -0.349243E-09
  0.493416E-08  0.673744E-07 -0.277247E-09
  0.271314E-08  0.446017E-07 -0.191597E-09
  0.133736E-08  0.260794E-07 -0.116945E-09
  0.589608E-09  0.135399E-07 -0.633407E-10
  0.231776E-09  0.626633E-08 -0.306136E-10
  0.808554E-10  0.259288E-08 -0.132558E-10
  0.248404E-10  0.961455E-09 -0.515776E-11
  0.662911E-11  0.320077E-09 -0.180760E-11
  0.150076E-11  0.958078E-10 -0.571477E-12
  0.318166E-12 -0.927451E-10  0.211790E-12
  0.177452E-11 -0.313693E-09  0.678305E-12
  0.744537E-11 -0.952916E-09  0.196069E-11
  0.258964E-10 -0.259628E-08  0.510664E-11
  0.774470E-10 -0.633376E-08  0.119570E-10
  0.202643E-09 -0.138047E-07  0.250961E-10
  0.468246E-09 -0.268036E-07  0.470324E-10
  0.960621E-09 -0.461827E-07  0.783122E-10
  0.175528E-08 -0.702444E-07  0.115766E-09
  0.286142E-08 -0.936383E-07  0.148019E-09
  0.416884E-08 -0.108293E-06  0.163693E-09
  0.544086E-08 -0.107097E-06  0.152258E-09
  0.639416E-08 -0.886847E-07  0.114202E-09
  0.684601E-08 -0.596316E-07  0.637985E-10
  0.683535E-08 -0.311190E-07  0.220815E-10
  0.661418E-08 -0.114640E-07  0.210932E-11
  0.648373E-08 -0.222048E-09  0.381687E-12
  0.658251E-08  0.107900E-07 -0.198889E-11
  0.678568E-08  0.299609E-07 -0.243439E-10
  0.679762E-08  0.581769E-07 -0.708387E-10
  0.636185E-08  0.874387E-07 -0.127986E-09
  0.542944E-08  0.106528E-06 -0.172772E-09
  0.417418E-08  0.108546E-06 -0.188434E-09
  0.287547E-08  0.945052E-07 -0.173024E-09
  0.177083E-08  0.713476E-07 -0.137404E-09
  0.973494E-09  0.471915E-07 -0.945157E-10
  0.477154E-09  0.275487E-07 -0.576745E-10
  0.208027E-09  0.142692E-07 -0.312616E-10
  0.803489E-10  0.658373E-08 -0.151251E-10
  0.273065E-10  0.271390E-08 -0.655635E-11
  0.806602E-11  0.100170E-08 -0.255339E-11
  0.202231E-11  0.331626E-09 -0.895360E-12
  0.407836E-12  0.986109E-10 -0.283141E-12
 -0.195432E-12 -0.930534E-10 -0.118665E-12
 -0.992919E-12 -0.315052E-09 -0.376566E-12
 -0.398998E-11 -0.957854E-09 -0.107911E-11
 -0.135350E-10 -0.261159E-08 -0.278775E-11
 -0.398289E-10 -0.637481E-08 -0.647789E-11
 -0.103070E-09 -0.139007E-07 -0.135006E-10
 -0.236354E-09 -0.269997E-07 -0.251373E-10
 -0.482410E-09 -0.465319E-07 -0.416123E-10
 -0.878714E-09 -0.707832E-07 -0.608230E-10
 -0.143098E-08 -0.943535E-07 -0.779855E-10
 -0.208662E-08 -0.109092E-06 -0.861344E-10
 -0.273166E-08 -0.107824E-06 -0.804149E-10
 -0.322764E-08 -0.891858E-07 -0.611010E-10
 -0.348192E-08 -0.598431E-07 -0.354283E-10
 -0.350542E-08 -0.311127E-07 -0.136241E-10
 -0.341083E-08 -0.113993E-07 -0.198790E-11
 -0.333859E-08 -0.230332E-09  0.105843E-11
 -0.335821E-08  0.107072E-07  0.367880E-11
 -0.341952E-08  0.299332E-07  0.136648E-10
 -0.339156E-08  0.583663E-07  0.320153E-10
 -0.315763E-08  0.879216E-07  0.526799E-10
 -0.269351E-08  0.107244E-06  0.668430E-10
 -0.207767E-08  0.109344E-06  0.691347E-10
 -0.144027E-08  0.952252E-07  0.604415E-10
 -0.894413E-09  0.718941E-07  0.454608E-10
 -0.496646E-09  0.475484E-07  0.300018E-10
 -0.246071E-09  0.277507E-07  0.174739E-10
 -0.108462E-09  0.143692E-07  0.904767E-11
 -0.423227E-10  0.662714E-08  0.418596E-11
 -0.144990E-10  0.273045E-08  0.173835E-11
 -0.429592E-11  0.100723E-08  0.650199E-12
 -0.106803E-11  0.333240E-09  0.219653E-12
 -0.206724E-12  0.990188E-10  0.671693E-13
 -0.942596E-12 -0.913363E-10 -0.427167E-12
 -0.450527E-11 -0.307515E-09 -0.135726E-11
 -0.176004E-10 -0.930686E-09 -0.389314E-11
 -0.587979E-10 -0.252813E-08 -0.100634E-10
 -0.171514E-09 -0.615268E-08 -0.233866E-10
 -0.441740E-09 -0.133847E-07 -0.487133E-10
 -0.101107E-08 -0.259507E-07 -0.905787E-10
 -0.206488E-08 -0.446680E-07 -0.149501E-09
 -0.377290E-08 -0.679020E-07 -0.218182E-09
 -0.617973E-08 -0.905092E-07 -0.277286E-09
 -0.909392E-08 -0.104738E-06 -0.300732E-09
 -0.120649E-07 -0.103742E-06 -0.273046E-09
 -0.145221E-07 -0.861769E-07 -0.196487E-09
 -0.160479E-07 -0.582919E-07 -0.998933E-10
 -0.166145E-07 -0.307570E-07 -0.239222E-10
 -0.165902E-07 -0.115358E-07  0.737099E-11
 -0.164646E-07 -0.259661E-09  0.234036E-11
 -0.164767E-07  0.108058E-07 -0.267866E-11
 -0.164336E-07  0.295877E-07  0.282991E-10
 -0.158667E-07  0.568689E-07  0.102952E-09
 -0.143955E-07  0.849801E-07  0.197036E-09
 -0.120142E-07  0.103210E-06  0.270469E-09
 -0.910739E-08  0.105000E-06  0.295504E-09
 -0.622846E-08  0.913595E-07  0.270780E-09
 -0.382868E-08  0.689750E-07  0.211867E-09
 -0.211052E-08  0.456465E-07  0.144412E-09
 -0.104127E-08  0.266728E-07  0.870884E-10
 -0.458629E-09  0.138351E-07  0.466383E-10
 -0.179653E-09  0.639543E-08  0.223023E-10
 -0.622141E-10  0.264263E-08  0.956263E-11
 -0.188548E-10  0.978346E-09  0.368778E-11
 -0.490873E-11  0.325118E-09  0.128218E-11
 -0.105601E-11  0.971280E-10  0.402626E-12
 -0.245184E-11 -0.872118E-10 -0.649584E-12
 -0.103878E-10 -0.290384E-09 -0.205162E-11
 -0.379633E-10 -0.870754E-09 -0.584797E-11
 -0.121686E-09 -0.234740E-08 -0.150170E-10
 -0.345596E-09 -0.567755E-08 -0.346496E-10
 -0.874969E-09 -0.122900E-07 -0.715925E-10
 -0.198273E-08 -0.237376E-07 -0.131843E-09
 -0.403306E-08 -0.407483E-07 -0.215028E-09
 -0.738133E-08 -0.618482E-07 -0.308408E-09
 -0.121827E-07 -0.824254E-07 -0.382621E-09
 -0.181858E-07 -0.955350E-07 -0.401754E-09
 -0.246597E-07 -0.950254E-07 -0.340859E-09
 -0.305866E-07 -0.796002E-07 -0.212685E-09
 -0.350859E-07 -0.546875E-07 -0.657945E-10
 -0.378189E-07 -0.296615E-07  0.340273E-10
 -0.390592E-07 -0.115902E-07  0.512350E-10
 -0.393435E-07 -0.293918E-09  0.431899E-11
 -0.389543E-07  0.108288E-07 -0.424886E-10
 -0.376641E-07  0.285453E-07 -0.245097E-10
 -0.349588E-07  0.533899E-07  0.764180E-10
 -0.305435E-07  0.785422E-07  0.222268E-09
 -0.247130E-07  0.945839E-07  0.349036E-09
 -0.183070E-07  0.958102E-07  0.407904E-09
 -0.123267E-07  0.832233E-07  0.386661E-09
 -0.751009E-08  0.628378E-07  0.310730E-09
 -0.412773E-08  0.416451E-07  0.216189E-09
 -0.204204E-08  0.243979E-07  0.132360E-09
 -0.907220E-09  0.127018E-07  0.718025E-10
 -0.360972E-09  0.589969E-08  0.347284E-10
 -0.128154E-09  0.245239E-08  0.150462E-10
 -0.403730E-10  0.914567E-09  0.585911E-11
 -0.111845E-10  0.306620E-09  0.205605E-11
 -0.268586E-11  0.925752E-10  0.651320E-12
 -0.470584E-11 -0.801703E-10 -0.749936E-12
 -0.184235E-10 -0.262997E-09 -0.234567E-11
 -0.639112E-10 -0.778747E-09 -0.661959E-11
 -0.197693E-09 -0.207727E-08 -0.168184E-10
 -0.547712E-09 -0.498035E-08 -0.383566E-10
 -0.136339E-08 -0.107044E-07 -0.782085E-10
 -0.305672E-08 -0.205601E-07 -0.141755E-09
 -0.618535E-08 -0.351505E-07 -0.226590E-09
 -0.113204E-07 -0.532200E-07 -0.315868E-09
 -0.187838E-07 -0.708813E-07 -0.375638E-09
 -0.283489E-07 -0.822960E-07 -0.366941E-09
 -0.390946E-07 -0.822719E-07 -0.268924E-09
 -0.495956E-07 -0.696283E-07 -0.102806E-09
 -0.584278E-07 -0.487435E-07  0.652742E-10
 -0.647048E-07 -0.272935E-07  0.153915E-09
 -0.682644E-07 -0.111445E-07  0.124037E-09
 -0.693779E-07 -0.310973E-09  0.591033E-11
 -0.682371E-07  0.103926E-07 -0.111758E-09
 -0.646951E-07  0.262836E-07 -0.140473E-09
 -0.584942E-07  0.476288E-07 -0.496758E-10
 -0.497682E-07  0.687535E-07  0.118284E-09
 -0.393584E-07  0.819372E-07  0.284055E-09
 -0.286529E-07  0.825701E-07  0.380480E-09
 -0.190700E-07  0.715914E-07  0.386645E-09
 -0.115484E-07  0.540837E-07  0.323981E-09
 -0.634236E-08  0.359278E-07  0.231999E-09
 -0.315131E-08  0.211311E-07  0.145031E-09
 -0.141364E-08  0.110605E-07  0.800088E-10
 -0.571363E-09  0.517280E-08  0.392532E-10
 -0.207594E-09  0.216847E-08  0.172235E-10
 -0.676059E-10  0.816946E-09  0.678571E-11
 -0.196545E-10  0.277214E-09  0.240747E-11
 -0.507228E-11  0.848905E-10  0.770791E-12
 -0.713519E-11 -0.701147E-10 -0.728989E-12
 -0.265645E-10 -0.226161E-09 -0.225164E-11
 -0.888165E-10 -0.659929E-09 -0.627000E-11
 -0.267334E-09 -0.173830E-08 -0.157008E-10
 -0.725747E-09 -0.412359E-08 -0.352324E-10
 -0.178003E-08 -0.878529E-08 -0.704938E-10
 -0.395059E-08 -0.167556E-07 -0.124823E-09
 -0.794689E-08 -0.284943E-07 -0.193447E-09
 -0.145166E-07 -0.429914E-07 -0.257682E-09
 -0.241382E-07 -0.571765E-07 -0.284355E-09
 -0.366557E-07 -0.664607E-07 -0.238842E-09
 -0.510676E-07 -0.667546E-07 -0.108721E-09
 -0.656769E-07 -0.570635E-07  0.742707E-10
 -0.786092E-07 -0.406793E-07  0.235012E-09
 -0.884194E-07 -0.234610E-07  0.288382E-09
 -0.943954E-07 -0.995047E-08  0.198776E-09
 -0.964013E-07 -0.296213E-09  0.673269E-11
 -0.944721E-07  0.926850E-08 -0.184965E-09
 -0.885977E-07  0.226083E-07 -0.273623E-09
 -0.789129E-07  0.397818E-07 -0.219060E-09
 -0.660988E-07  0.563856E-07 -0.573385E-10
 -0.515598E-07  0.665191E-07  0.125726E-09
 -0.371465E-07  0.667098E-07  0.254628E-09
 -0.245619E-07  0.577668E-07  0.297696E-09