<?xml version="1.0"?>
 <VTKFile type="ImageData" version="0.1" byte_order="LittleEndian">
   <ImageData WholeExtent="           0          32           0          32           0          32 " Origin="  -8.0000000000000000       -8.0000000000000000       -8.0000000000000000      " Spacing="  0.50000000000000000       0.50000000000000000       0.50000000000000000      ">
   <Piece Extent="           0          32           0          32           0          32 ">
   <PointData Scalars="scalars">
   <DataArray Name="vectors" type="Float64" NumberOfComponents="3" Format="ascii">
  0.340981E-13 -0.352840E-13  0.913260E-18
  0.106245E-12 -0.999701E-13 -0.101125E-15
  0.302564E-12 -0.257143E-12 -0.587219E-15
  0.787668E-12 -0.600322E-12 -0.230014E-14
  0.187699E-11 -0.127060E-11 -0.725984E-14
  0.409767E-11 -0.243567E-11 -0.195179E-13
  0.819761E-11 -0.421681E-11 -0.457114E-13
  0.150414E-10 -0.657121E-11 -0.945790E-13
  0.253408E-10 -0.916899E-11 -0.174156E-12
  0.392660E-10 -0.113748E-10 -0.286442E-12
  0.561069E-10 -0.124251E-10 -0.421059E-12
  0.742283E-10 -0.117924E-10 -0.551520E-12
  0.914629E-10 -0.954583E-11 -0.638289E-12
  0.105818E-09 -0.642306E-11 -0.640354E-12
  0.116106E-09 -0.345730E-11 -0.532195E-12
  0.122095E-09 -0.134367E-11 -0.318426E-12
  0.124091E-09  0.210932E-15 -0.376409E-13
  0.122315E-09  0.131333E-11  0.248162E-12
  0.116586E-09  0.335809E-11  0.475461E-12
  0.106590E-09  0.627959E-11  0.601221E-12
  0.924967E-10  0.942810E-11  0.616026E-12
  0.754128E-10  0.117701E-10  0.541982E-12
  0.572837E-10  0.125252E-10  0.419018E-12
  0.402894E-10  0.115709E-10  0.287543E-12
  0.261255E-10  0.940354E-11  0.175773E-12
  0.155748E-10  0.678813E-11  0.956656E-13
  0.852036E-11  0.438313E-11  0.461704E-13
  0.427204E-11  0.254475E-11  0.195937E-13
  0.196126E-11  0.133280E-11  0.719072E-14
  0.824010E-12  0.631351E-12  0.221886E-14
  0.316727E-12  0.270942E-12  0.531689E-15
  0.111176E-12  0.105392E-12  0.728066E-16
  0.356365E-13  0.371789E-13 -0.128774E-16
  0.928307E-13 -0.105893E-12  0.105156E-15
  0.293054E-12 -0.303943E-12  0.159884E-16
  0.845478E-12 -0.792429E-12 -0.867432E-15
  0.223243E-11 -0.187583E-11 -0.465482E-14
  0.539609E-11 -0.402908E-11 -0.167507E-13
  0.119435E-10 -0.783552E-11 -0.484428E-13
  0.242205E-10 -0.137602E-10 -0.119248E-12
  0.450322E-10 -0.217386E-10 -0.256063E-12
  0.768421E-10 -0.307355E-10 -0.485623E-12
  0.120540E-09 -0.386231E-10 -0.818416E-12
  0.174281E-09 -0.427390E-10 -0.122790E-11
  0.233178E-09 -0.411293E-10 -0.163611E-11
  0.290363E-09 -0.338452E-10 -0.192000E-11
  0.339133E-09 -0.232744E-10 -0.194660E-11
  0.375003E-09 -0.129233E-10 -0.162860E-11
  0.396400E-09 -0.523151E-11 -0.975332E-12
  0.403618E-09 -0.296484E-13 -0.108247E-12
  0.397085E-09  0.507562E-11  0.773566E-12
  0.376470E-09  0.125626E-10  0.146596E-11
  0.341444E-09  0.227870E-10  0.183486E-11
  0.293401E-09  0.334509E-10  0.185678E-11
  0.236606E-09  0.410421E-10  0.160921E-11
  0.177644E-09  0.430359E-10  0.122217E-11
  0.123431E-09  0.392162E-10  0.821375E-12
  0.790355E-10  0.314436E-10  0.489884E-12
  0.465076E-10  0.223893E-10  0.258785E-12
  0.251039E-10  0.142551E-10  0.120248E-12
  0.124156E-10  0.815703E-11  0.484503E-13
  0.562169E-11  0.421061E-11  0.164351E-13
  0.232894E-11  0.196579E-11  0.435883E-14
  0.882469E-12  0.831814E-12  0.683766E-15
  0.305752E-12  0.319233E-12 -0.106568E-15
  0.967325E-13  0.111169E-12 -0.142641E-15
  0.229353E-12 -0.290476E-12  0.572489E-15
  0.733961E-12 -0.844550E-12  0.946198E-15
  0.214772E-11 -0.223309E-11  0.194422E-15
  0.575148E-11 -0.536306E-11 -0.618652E-14
  0.140944E-10 -0.116816E-10 -0.308178E-13
  0.316175E-10 -0.230305E-10 -0.101918E-12
  0.649501E-10 -0.409777E-10 -0.270809E-12
  0.122252E-09 -0.655431E-10 -0.612076E-12
  0.211054E-09 -0.937537E-10 -0.120549E-11
  0.334739E-09 -0.119119E-09 -0.209242E-11
  0.489034E-09 -0.133234E-09 -0.321464E-11
  0.660715E-09 -0.129644E-09 -0.436602E-11
  0.830194E-09 -0.108031E-09 -0.520146E-11
  0.977408E-09 -0.754742E-10 -0.533294E-11
  0.108780E-08 -0.428045E-10 -0.449338E-11
  0.115482E-08 -0.177913E-10 -0.269412E-11
  0.117763E-08 -0.184749E-12 -0.279495E-12
  0.115681E-08  0.171529E-10  0.217371E-11
  0.109198E-08  0.416036E-10  0.407528E-11
  0.983836E-09  0.739493E-10  0.504738E-11
  0.838477E-09  0.106817E-09  0.504144E-11
  0.669908E-09  0.129344E-09  0.429906E-11
  0.497926E-09  0.134051E-09  0.320104E-11
  0.342293E-09  0.120780E-09  0.210004E-11
  0.216722E-09  0.957325E-10  0.121574E-11
  0.126026E-09  0.673501E-10  0.618134E-12
  0.671863E-10  0.423409E-10  0.272559E-12
  0.328001E-10  0.239082E-10  0.101367E-12
  0.146535E-10  0.121723E-10  0.296749E-13
  0.598798E-11  0.560368E-11  0.526002E-14
  0.223727E-11  0.233723E-11 -0.739907E-15
  0.764294E-12  0.884495E-12 -0.120746E-14
  0.238548E-12  0.304089E-12 -0.678442E-15
  0.514054E-12 -0.728402E-12  0.214179E-14
  0.166833E-11 -0.214805E-11  0.465634E-14
  0.495326E-11 -0.576011E-11  0.713372E-14
  0.134495E-10 -0.140258E-10  0.182793E-14
  0.334034E-10 -0.309641E-10 -0.367152E-13
  0.758933E-10 -0.618331E-10 -0.170715E-12
  0.157784E-09 -0.111344E-09 -0.520844E-12
  0.300336E-09 -0.180073E-09 -0.127295E-11
  0.523929E-09 -0.260201E-09 -0.264053E-11
  0.839063E-09 -0.333691E-09 -0.475883E-11
  0.123689E-08 -0.376513E-09 -0.752294E-11
  0.168507E-08 -0.369534E-09 -0.104457E-10
  0.213338E-08 -0.310766E-09 -0.126566E-10
  0.252832E-08 -0.219488E-09 -0.131368E-10
  0.282880E-08 -0.126220E-09 -0.111537E-10
  0.301354E-08 -0.533484E-10 -0.669758E-11
  0.307689E-08 -0.762081E-12 -0.646564E-12
  0.301883E-08  0.511382E-10  0.549541E-11
  0.283970E-08  0.122596E-09  0.101921E-10
  0.254476E-08  0.215120E-09  0.124853E-10
  0.215415E-08  0.307342E-09  0.122965E-10
  0.170774E-08  0.368624E-09  0.102987E-10
  0.125853E-08  0.378594E-09  0.749563E-11
  0.857232E-09  0.337999E-09  0.477696E-11
  0.537421E-09  0.265321E-09  0.266241E-11
  0.309232E-09  0.184720E-09  0.128436E-11
  0.163007E-09  0.114823E-09  0.522580E-12
  0.786303E-10  0.640543E-10  0.167831E-12
  0.346851E-10  0.321945E-10  0.331347E-13
  0.139864E-10  0.146232E-10 -0.444008E-14
  0.515449E-11  0.601601E-11 -0.860066E-14
  0.173608E-11  0.224508E-11 -0.533888E-14
  0.534253E-12  0.761079E-12 -0.241434E-14
  0.104390E-11 -0.167228E-11  0.648668E-14
  0.343872E-11 -0.500232E-11  0.158900E-13
  0.103547E-10 -0.135995E-10  0.317714E-13
  0.284987E-10 -0.335612E-10  0.452227E-13
  0.716865E-10 -0.750398E-10  0.137681E-13
  0.164815E-09 -0.151634E-09 -0.182041E-12
  0.346420E-09 -0.276026E-09 -0.794253E-12
  0.666036E-09 -0.450789E-09 -0.223784E-11
  0.117257E-08 -0.657080E-09 -0.502532E-11
  0.189358E-08 -0.849210E-09 -0.953685E-11
  0.281273E-08 -0.964833E-09 -0.156365E-10
  0.385842E-08 -0.952975E-09 -0.223004E-10
  0.491514E-08 -0.806374E-09 -0.275581E-10
  0.585598E-08 -0.573278E-09 -0.290057E-10
  0.657932E-08 -0.332214E-09 -0.248409E-10
  0.702811E-08 -0.141708E-09 -0.149473E-10
  0.718282E-08 -0.248668E-11 -0.133627E-11
  0.704080E-08  0.135123E-09  0.124672E-10
  0.660506E-08  0.322358E-09  0.228683E-10
  0.589411E-08  0.561872E-09  0.276829E-10
  0.496253E-08  0.797556E-09  0.268395E-10
  0.390943E-08  0.950503E-09  0.220165E-10
  0.286083E-08  0.969751E-09  0.155896E-10
  0.193356E-08  0.859541E-09  0.957418E-11
  0.120199E-08  0.669332E-09  0.506444E-11
  0.685276E-09  0.461849E-09  0.225358E-11
  0.357628E-09  0.284251E-09  0.791064E-12
  0.170643E-09  0.156846E-09  0.171425E-12
  0.743955E-10  0.779030E-10 -0.238589E-13
  0.296248E-10  0.349393E-10 -0.519641E-13
  0.107735E-10  0.141843E-10 -0.353901E-13
  0.357794E-11  0.522193E-11 -0.175287E-13
  0.108522E-11  0.174542E-11 -0.712794E-14
  0.191841E-11 -0.351762E-11  0.167357E-13
  0.641245E-11 -0.106701E-10  0.439445E-13
  0.195781E-10 -0.294018E-10  0.988171E-13
  0.545826E-10 -0.734923E-10  0.182341E-12
  0.138938E-09 -0.166288E-09  0.242165E-12
  0.322906E-09 -0.339685E-09  0.840693E-13
  0.685372E-09 -0.624377E-09 -0.755113E-12
  0.132933E-08 -0.102844E-08 -0.310266E-11
  0.235873E-08 -0.151019E-08 -0.806159E-11
  0.383586E-08 -0.196402E-08 -0.165681E-10
  0.573331E-08 -0.224305E-08 -0.285750E-10
  0.790806E-08 -0.222479E-08 -0.421873E-10
  0.101220E-07 -0.188868E-08 -0.534106E-10
  0.121076E-07 -0.134598E-08 -0.571620E-10
  0.136450E-07 -0.781427E-09 -0.494601E-10
  0.146044E-07 -0.334087E-09 -0.298514E-10
  0.149363E-07 -0.677533E-11 -0.245851E-11
  0.146314E-07  0.317024E-09  0.252974E-10
  0.136992E-07  0.757342E-09  0.458617E-10
  0.121870E-07  0.131890E-08  0.547781E-10
  0.102194E-07  0.186796E-08  0.521406E-10
  0.801174E-08  0.221873E-08  0.417030E-10
  0.583015E-08  0.225378E-08  0.285015E-10
  0.391571E-08  0.198688E-08  0.166269E-10
  0.241708E-08  0.153725E-08  0.811113E-11
  0.136724E-08  0.105277E-08  0.310718E-11
  0.707328E-09  0.642364E-09  0.729381E-12
  0.334259E-09  0.351009E-09 -0.116836E-12
  0.144186E-09  0.172466E-09 -0.268245E-12
  0.567524E-10  0.764439E-10 -0.198452E-12
  0.203808E-10  0.306446E-10 -0.107084E-12
  0.667797E-11  0.111330E-10 -0.475782E-13
  0.199686E-11  0.367046E-11 -0.181276E-13
  0.318089E-11 -0.678444E-11  0.377761E-13
  0.107868E-10 -0.208609E-10  0.103785E-12
  0.333739E-10 -0.582361E-10  0.250044E-12
  0.941766E-10 -0.147338E-09  0.517881E-12
  0.242347E-09 -0.337072E-09  0.883050E-12
  0.568728E-09 -0.695375E-09  0.109473E-11
  0.121751E-08 -0.128925E-08  0.416193E-12
  0.237922E-08 -0.213933E-08 -0.261766E-11
  0.424922E-08 -0.316077E-08 -0.101338E-10
  0.694915E-08 -0.413066E-08 -0.241686E-10
  0.104364E-07 -0.473418E-08 -0.451215E-10
  0.144529E-07 -0.470523E-08 -0.699502E-10
  0.185600E-07 -0.399550E-08 -0.914518E-10
  0.222582E-07 -0.284198E-08 -0.999666E-10
  0.251313E-07 -0.164284E-08 -0.876137E-10
  0.269293E-07 -0.698895E-09 -0.531006E-10
  0.275522E-07 -0.157568E-10 -0.400991E-11
  0.269798E-07  0.660238E-09  0.456934E-10
  0.252320E-07  0.159004E-08  0.818069E-10
  0.224043E-07  0.278363E-08  0.961721E-10
  0.187381E-07  0.395101E-08  0.894694E-10
  0.146413E-07  0.469168E-08  0.692054E-10
  0.106113E-07  0.475562E-08  0.449912E-10
  0.709261E-08  0.417718E-08  0.242091E-10
  0.435358E-08  0.321584E-08  0.101398E-10
  0.244674E-08  0.218866E-08  0.255323E-11
  0.125647E-08  0.132557E-08 -0.513156E-12
  0.588797E-09  0.718123E-09 -0.118361E-11
  0.251592E-09  0.349415E-09 -0.945289E-12
  0.979877E-10  0.153200E-09 -0.553746E-12
  0.347800E-10  0.606892E-10 -0.267647E-12
  0.112510E-10  0.217689E-10 -0.111284E-12
  0.331786E-11  0.708234E-11 -0.405818E-13
  0.473917E-11 -0.120061E-10  0.752381E-13
  0.163000E-10 -0.374142E-10  0.214116E-12
  0.510726E-10 -0.105757E-09  0.540727E-12
  0.145746E-09 -0.270624E-09  0.119878E-11
  0.378766E-09 -0.625449E-09  0.228722E-11
  0.896508E-09 -0.130184E-08  0.360055E-11
  0.193335E-08 -0.243211E-08  0.415521E-11
  0.380158E-08 -0.406129E-08  0.166250E-11
  0.682451E-08 -0.603021E-08 -0.754733E-11
  0.112071E-07 -0.790828E-08 -0.274265E-10
  0.168853E-07 -0.908052E-08 -0.595625E-10
  0.234390E-07 -0.902322E-08 -0.998386E-10
  0.301474E-07 -0.763962E-08 -0.136728E-09
  0.361885E-07 -0.539734E-08 -0.153834E-09
  0.408787E-07 -0.308426E-08 -0.137129E-09
  0.438106E-07 -0.129422E-08 -0.836697E-10
  0.448252E-07 -0.315444E-10 -0.576081E-11
  0.438917E-07  0.121745E-08  0.730598E-10
  0.410406E-07  0.298048E-08  0.128886E-09
  0.364234E-07  0.528315E-08  0.148507E-09
  0.304333E-07  0.755229E-08  0.133984E-09
  0.237411E-07  0.899529E-08  0.987744E-10
  0.171655E-07  0.911948E-08  0.592651E-10
  0.114366E-07  0.799499E-08  0.272922E-10
  0.699124E-08  0.613314E-08  0.733831E-11
  0.390928E-08  0.415337E-08 -0.194516E-11
  0.199538E-08  0.249970E-08 -0.443358E-11
  0.928422E-09  0.134402E-08 -0.381537E-11
  0.393449E-09  0.648239E-09 -0.242417E-11
  0.151793E-09  0.281401E-09 -0.127312E-11
  0.533028E-10  0.110246E-09 -0.575725E-12
  0.170366E-10  0.390683E-10 -0.228569E-12
  0.495730E-11  0.125463E-10 -0.805069E-13
  0.630976E-11 -0.195227E-10  0.133321E-12
  0.220011E-10 -0.616352E-10  0.390285E-12
  0.697669E-10 -0.176303E-09  0.102086E-11
  0.201169E-09 -0.455974E-09  0.237013E-11
  0.527450E-09 -0.106371E-08  0.483082E-11
  0.125776E-08 -0.223190E-08  0.847383E-11
  0.272903E-08 -0.419765E-08  0.122737E-10
  0.539231E-08 -0.704681E-08  0.131090E-10
  0.971566E-08 -0.105033E-07  0.531785E-11
  0.159949E-07 -0.138045E-07 -0.179400E-10
  0.241325E-07 -0.158528E-07 -0.606644E-10
  0.335114E-07 -0.157120E-07 -0.118565E-09
  0.430796E-07 -0.132156E-07 -0.175327E-09
  0.516520E-07 -0.922031E-08 -0.206105E-09
  0.582650E-07 -0.516119E-08 -0.188524E-09
  0.623724E-07 -0.211086E-08 -0.116550E-09
  0.637872E-07 -0.543703E-10 -0.723818E-11
  0.624819E-07  0.197731E-08  0.103277E-09
  0.584852E-07  0.497831E-08  0.178311E-09
  0.519746E-07  0.901717E-08  0.199593E-09
  0.434758E-07  0.130583E-07  0.171928E-09
  0.339329E-07  0.156584E-07  0.117057E-09
  0.245255E-07  0.159165E-07  0.598886E-10
  0.163180E-07  0.139521E-07  0.172386E-10
  0.995095E-08  0.106797E-07 -0.611934E-11
  0.554457E-08  0.720470E-08 -0.139128E-10
  0.281682E-08  0.431340E-08 -0.129399E-10
  0.130296E-08  0.230397E-08 -0.893748E-11
  0.548265E-09  0.110255E-08 -0.510690E-11
  0.209750E-09  0.474282E-09 -0.251288E-11
  0.729365E-10  0.183905E-09 -0.108563E-11
  0.230504E-10  0.644280E-10 -0.416272E-12
  0.662101E-11  0.204326E-10 -0.142586E-12
  0.744744E-11 -0.292295E-10  0.210839E-12
  0.263228E-10 -0.934501E-10  0.631842E-12
  0.844396E-10 -0.270342E-09  0.169896E-11
  0.245845E-09 -0.706176E-09  0.408051E-11
  0.649749E-09 -0.166159E-08  0.869293E-11
  0.155932E-08 -0.351162E-08  0.162414E-10
  0.339990E-08 -0.664309E-08  0.260847E-10
  0.674093E-08 -0.112010E-07  0.345662E-10
  0.121696E-07 -0.167415E-07  0.338910E-10
  0.200453E-07 -0.220221E-07  0.134718E-10
  0.302159E-07 -0.252486E-07 -0.346737E-10
  0.418619E-07 -0.248941E-07 -0.107616E-09
  0.536279E-07 -0.207150E-07 -0.185453E-09
  0.640317E-07 -0.141711E-07 -0.234688E-09
  0.719329E-07 -0.767478E-08 -0.223242E-09
  0.767661E-07 -0.300410E-08 -0.139659E-09
  0.784104E-07 -0.800317E-10 -0.785305E-11
  0.768837E-07  0.280130E-08  0.125297E-09
  0.721753E-07  0.738570E-08  0.212292E-09
  0.643972E-07  0.138418E-07  0.227683E-09
  0.540886E-07  0.204541E-07  0.181538E-09
  0.423622E-07  0.247978E-07  0.105321E-09
  0.306896E-07  0.253412E-07  0.327949E-10
  0.204392E-07  0.222509E-07 -0.154633E-10
  0.124588E-07  0.170182E-07 -0.359305E-10
  0.692920E-08  0.114496E-07 -0.363755E-10
  0.350895E-08  0.682544E-08 -0.274538E-10
  0.161567E-08  0.362506E-08 -0.171336E-10
  0.675783E-09  0.172262E-08 -0.919877E-11
  0.256611E-09  0.734895E-09 -0.433233E-11
  0.884297E-10  0.282245E-09 -0.180981E-11
  0.276490E-10  0.978148E-10 -0.675210E-12
  0.784292E-11  0.306496E-10 -0.225976E-12
  0.770826E-11 -0.404210E-10  0.297453E-12
  0.276295E-10 -0.130808E-09  0.909153E-12
  0.896589E-10 -0.382485E-09  0.249965E-11
  0.263483E-09 -0.100841E-08  0.616142E-11
  0.701469E-09 -0.239145E-08  0.135491E-10
  0.169259E-08 -0.508691E-08  0.263856E-10
  0.370383E-08 -0.967177E-08  0.449705E-10
  0.735660E-08 -0.163651E-07  0.657367E-10
  0.132796E-07 -0.245030E-07  0.791168E-10
  0.218281E-07 -0.322182E-07  0.705534E-10
  0.327659E-07 -0.368115E-07  0.266661E-10
  0.451132E-07 -0.360062E-07 -0.532654E-10
  0.573343E-07 -0.295026E-07 -0.148343E-09
  0.678462E-07 -0.196161E-07 -0.218496E-09
  0.755662E-07 -0.101003E-07 -0.221726E-09
  0.801277E-07 -0.367008E-08 -0.143192E-09
  0.816370E-07 -0.985483E-10 -0.723017E-11
  0.802143E-07  0.340326E-08  0.130003E-09
  0.757593E-07  0.968973E-08  0.211653E-09
  0.681623E-07  0.191279E-07  0.211815E-09
  0.577602E-07  0.291024E-07  0.143902E-09
  0.455992E-07  0.358440E-07  0.495342E-10
  0.332424E-07  0.369292E-07 -0.306166E-10
  0.222342E-07  0.325409E-07 -0.748259E-10
  0.135831E-07  0.249005E-07 -0.832321E-10
  0.755676E-08  0.167247E-07 -0.691507E-10
  0.382089E-08  0.993623E-08 -0.474163E-10
  0.175354E-08  0.525153E-08 -0.279113E-10
  0.729801E-09  0.247998E-08 -0.143845E-10
  0.275267E-09  0.105003E-08 -0.656568E-11
  0.940495E-10  0.399717E-09 -0.267343E-11
  0.290974E-10  0.137122E-09 -0.975773E-12
  0.814896E-11  0.424743E-10 -0.320299E-12
  0.689164E-11 -0.518740E-10  0.372608E-12
  0.250916E-10 -0.169826E-09  0.115779E-11
  0.824345E-10 -0.501584E-09  0.324101E-11
  0.244571E-09 -0.133379E-08  0.815124E-11
  0.655667E-09 -0.318576E-08  0.183503E-10
  0.158933E-08 -0.681548E-08  0.367816E-10
  0.348557E-08 -0.130141E-07  0.651254E-10
  0.692131E-08 -0.220801E-07  0.100632E-09
  0.124574E-07 -0.330880E-07  0.133010E-09
  0.203562E-07 -0.434363E-07  0.144138E-09
  0.302783E-07 -0.493757E-07  0.115287E-09
  0.411691E-07 -0.477823E-07  0.401976E-10
  0.515105E-07 -0.383601E-07 -0.628455E-10
  0.598944E-07 -0.245289E-07 -0.151447E-09
  0.655838E-07 -0.117072E-07 -0.177559E-09
  0.686527E-07 -0.372746E-08 -0.121301E-09
  0.695874E-07 -0.966117E-10 -0.548089E-11
  0.686647E-07  0.342716E-08  0.111265E-09
  0.656460E-07  0.111811E-07  0.169725E-09
  0.600527E-07  0.238636E-07  0.145587E-09
  0.517813E-07  0.377905E-07  0.575944E-10
  0.415235E-07  0.475271E-07 -0.461424E-10
  0.306564E-07  0.495036E-07 -0.122319E-09
  0.206964E-07  0.438509E-07 -0.151642E-09
  0.127210E-07  0.336127E-07 -0.139934E-09
  0.709959E-08  0.225595E-07 -0.106142E-09
  0.359176E-08  0.133681E-07 -0.689359E-10
  0.164539E-08  0.703628E-08 -0.390902E-10
  0.682005E-09  0.330457E-08 -0.195843E-10
  0.255624E-09  0.138964E-08 -0.873623E-11
  0.865882E-10  0.524702E-09 -0.348806E-11
  0.264919E-10  0.178294E-09 -0.125104E-11
  0.731579E-11  0.546286E-10 -0.404149E-12
  0.521264E-11 -0.622002E-10  0.409503E-12
  0.193491E-10 -0.205836E-09  0.128965E-11
  0.645031E-10 -0.613553E-09  0.366182E-11
  0.193411E-09 -0.164419E-08  0.935296E-11
  0.522235E-09 -0.395215E-08  0.214239E-10
  0.127082E-08 -0.849723E-08  0.438279E-10
  0.278867E-08 -0.162832E-07  0.796091E-10
  0.552104E-08 -0.276816E-07  0.127323E-09
  0.986770E-08 -0.414846E-07  0.177226E-09
  0.159360E-07 -0.543213E-07  0.209616E-09
  0.232964E-07 -0.613548E-07  0.202051E-09
  0.309351E-07 -0.586163E-07  0.142673E-09
  0.375560E-07 -0.459006E-07  0.443408E-10
  0.421584E-07 -0.279064E-07 -0.536487E-10
  0.445408E-07 -0.119043E-07 -0.102847E-09
  0.453251E-07 -0.291847E-08 -0.800123E-10
  0.454126E-07 -0.647734E-10 -0.323511E-11
  0.452413E-07  0.263565E-08  0.740097E-10
  0.444298E-07  0.112913E-07  0.976793E-10
  0.420971E-07  0.270670E-07  0.485589E-10
  0.375959E-07  0.451455E-07 -0.507900E-10
  0.310776E-07  0.582437E-07 -0.151363E-09
  0.235011E-07  0.614692E-07 -0.212623E-09
  0.161486E-07  0.548097E-07 -0.220663E-09
  0.100467E-07  0.421244E-07 -0.187116E-09
  0.564851E-08  0.282737E-07 -0.134977E-09
  0.286730E-08  0.167231E-07 -0.847804E-10
  0.131337E-08  0.877235E-08 -0.469003E-10
  0.542607E-09  0.410038E-08 -0.230390E-10
  0.202091E-09  0.171391E-08 -0.101078E-10
  0.678077E-10  0.642417E-09 -0.397664E-11
  0.204768E-10  0.216412E-09 -0.140717E-11
  0.555847E-11  0.656421E-10 -0.448860E-12
  0.324078E-11 -0.703131E-10  0.384212E-12
  0.123516E-10 -0.234893E-09  0.122268E-11
  0.419623E-10 -0.705761E-09  0.350919E-11
  0.127468E-09 -0.190382E-08  0.906549E-11
  0.346949E-09 -0.460069E-08  0.210243E-10
  0.847137E-09 -0.993220E-08  0.436217E-10
  0.185644E-08 -0.190866E-07  0.805933E-10
  0.365114E-08 -0.324911E-07  0.131738E-09
  0.644179E-08 -0.486692E-07  0.189123E-09
  0.101881E-07 -0.635383E-07  0.234433E-09
  0.144363E-07 -0.712715E-07  0.245196E-09
  0.183353E-07 -0.671640E-07  0.206650E-09
  0.209432E-07 -0.511804E-07  0.124692E-09
  0.217354E-07 -0.293161E-07  0.328083E-10
  0.209940E-07 -0.106535E-07 -0.287667E-10
  0.197301E-07 -0.133473E-08 -0.360075E-10
  0.190846E-07 -0.611596E-11 -0.129627E-11
  0.195763E-07  0.111954E-08  0.333969E-10
  0.207508E-07  0.999362E-08  0.257051E-10
  0.214960E-07  0.283271E-07 -0.375121E-10
  0.207818E-07  0.502460E-07 -0.132350E-09
  0.182791E-07  0.666630E-07 -0.217681E-09
  0.144668E-07  0.713491E-07 -0.258570E-09
  0.102643E-07  0.640718E-07 -0.248130E-09
  0.652505E-08  0.493970E-07 -0.201134E-09
  0.371846E-08  0.331743E-07 -0.140857E-09
  0.190115E-08  0.195977E-07 -0.866610E-10
  0.872528E-09  0.102530E-07 -0.471808E-10
  0.359526E-09  0.477381E-08 -0.228749E-10
  0.132968E-09  0.198532E-08 -0.992227E-11
  0.441018E-10  0.739521E-09 -0.386360E-11
  0.130960E-10  0.247269E-09 -0.135403E-11
  0.347398E-11  0.743438E-10 -0.427874E-12
  0.158335E-11 -0.757298E-10  0.286641E-12
  0.625673E-11 -0.254855E-09  0.919191E-12
  0.217874E-10 -0.770435E-09  0.265804E-11
  0.672514E-10 -0.208874E-08  0.691987E-11
  0.184739E-09 -0.506781E-08  0.161797E-10
  0.452449E-09 -0.109737E-07  0.338732E-10
  0.988282E-09 -0.211301E-07  0.632446E-10
  0.192333E-08 -0.359991E-07  0.104716E-09
  0.332686E-08 -0.538874E-07  0.153154E-09
  0.509254E-08 -0.701544E-07  0.194813E-09
  0.685244E-08 -0.782103E-07  0.211266E-09
  0.802230E-08 -0.728061E-07  0.191123E-09
  0.804343E-08 -0.541006E-07  0.136128E-09
  0.674548E-08 -0.291902E-07  0.670956E-10
  0.459333E-08 -0.864573E-08  0.134916E-10
  0.257425E-08  0.504711E-09 -0.678425E-11
  0.170125E-08  0.602703E-10 -0.166201E-12
  0.242122E-08 -0.630885E-09  0.616539E-11
  0.434083E-08  0.797258E-08 -0.153475E-10
  0.647282E-08  0.280919E-07 -0.714649E-10
  0.781905E-08  0.530199E-07 -0.144137E-09
  0.787960E-08  0.721896E-07 -0.202801E-09
  0.678826E-08  0.782411E-07 -0.225256E-09
  0.508225E-08  0.707062E-07 -0.208943E-09
  0.334239E-08  0.546703E-07 -0.165375E-09
  0.194454E-08  0.367441E-07 -0.113889E-09
  0.100540E-08  0.216908E-07 -0.692899E-10
  0.463230E-09  0.113268E-07 -0.373924E-10
  0.190442E-09  0.525870E-08 -0.179978E-10
  0.698668E-10  0.217870E-08 -0.775702E-11
  0.228446E-10  0.807727E-09 -0.300271E-11
  0.663733E-11  0.268534E-09 -0.104640E-11
  0.170622E-11  0.801893E-10 -0.328812E-12
  0.501871E-12 -0.785099E-10  0.128085E-12
  0.206032E-11 -0.265352E-09  0.413228E-12
  0.734867E-11 -0.805041E-09  0.120162E-11
  0.230321E-10 -0.218891E-08  0.314418E-11
  0.638144E-10 -0.532309E-08  0.738671E-11
  0.156719E-09 -0.115463E-07  0.155373E-10
  0.341211E-09 -0.222570E-07  0.291510E-10
  0.657165E-09 -0.379337E-07  0.485491E-10
  0.111403E-08 -0.567533E-07  0.718172E-10
  0.164603E-08 -0.737503E-07  0.916850E-10
  0.208308E-08 -0.818927E-07  0.101313E-09
  0.217810E-08 -0.756310E-07  0.941888E-10
  0.171803E-08 -0.552655E-07  0.707129E-10
  0.681184E-09 -0.285709E-07  0.396916E-10
 -0.663804E-09 -0.701847E-08  0.138693E-10
 -0.182105E-08  0.184253E-08  0.154717E-11
 -0.230116E-08  0.106134E-09  0.267301E-12
 -0.189199E-08 -0.190422E-08 -0.137454E-11
 -0.782984E-09  0.634572E-08 -0.149506E-10
  0.547918E-09  0.274113E-07 -0.431253E-10
  0.160114E-08  0.540966E-07 -0.773240E-10
  0.209421E-08  0.749408E-07 -0.103872E-09
  0.203372E-08  0.818880E-07 -0.112859E-09
  0.162315E-08  0.743048E-07 -0.103265E-09
  0.110694E-08  0.575618E-07 -0.817993E-10
  0.657230E-09  0.387098E-07 -0.560055E-10
  0.343321E-09  0.228436E-07 -0.340484E-10
  0.158671E-09  0.119165E-07 -0.183795E-10
  0.650587E-10  0.552353E-08 -0.885166E-11
  0.236795E-10  0.228346E-08 -0.381744E-11
  0.763878E-11  0.844266E-09 -0.147837E-11
  0.217510E-11  0.279754E-09 -0.515233E-12
  0.542466E-12  0.832100E-10 -0.161865E-12
 -0.239668E-12 -0.788918E-10 -0.598770E-13
 -0.994259E-12 -0.266795E-09 -0.190561E-12
 -0.356287E-11 -0.809809E-09 -0.548353E-12
 -0.111835E-10 -0.220275E-08 -0.142426E-11
 -0.309700E-10 -0.535844E-08 -0.333138E-11
 -0.759096E-10 -0.116257E-07 -0.699597E-11
 -0.164749E-09 -0.224132E-07 -0.131362E-10
 -0.315922E-09 -0.382012E-07 -0.219422E-10
 -0.532389E-09 -0.571465E-07 -0.323702E-10
 -0.780409E-09 -0.742371E-07 -0.419282E-10
 -0.975709E-09 -0.823763E-07 -0.467300E-10
 -0.998360E-09 -0.759734E-07 -0.439637E-10
 -0.746820E-09 -0.553541E-07 -0.335772E-10
 -0.213994E-09 -0.283984E-07 -0.194495E-10
  0.466288E-09 -0.671356E-08 -0.730807E-11
  0.105064E-08  0.207442E-08 -0.909981E-12
  0.129879E-08  0.109062E-09  0.568164E-12
  0.110436E-08 -0.213330E-08  0.183077E-11
  0.555826E-09  0.603652E-08  0.748129E-11
 -0.115617E-09  0.272278E-07  0.182091E-10
 -0.663572E-09  0.541718E-07  0.304146E-10
 -0.942835E-09  0.752722E-07  0.389003E-10
 -0.947969E-09  0.823656E-07  0.404403E-10
 -0.772598E-09  0.747905E-07  0.354743E-10
 -0.534863E-09  0.579570E-07  0.267341E-10
 -0.321415E-09  0.389804E-07  0.176842E-10
 -0.169531E-09  0.230027E-07  0.103209E-10
 -0.789414E-10  0.119979E-07  0.535433E-11
 -0.325276E-10  0.556009E-08  0.248204E-11
 -0.118557E-10  0.229794E-08  0.103279E-11
 -0.380973E-11  0.849334E-09  0.387069E-12
 -0.107139E-11  0.281324E-09  0.131008E-12
 -0.259905E-12  0.836402E-10  0.401270E-13
 -0.116241E-11 -0.769260E-10 -0.235177E-12
 -0.466274E-11 -0.259289E-09 -0.751443E-12
 -0.163824E-10 -0.784903E-09 -0.216731E-11
 -0.508481E-10 -0.213035E-08 -0.563242E-11
 -0.140082E-09 -0.517342E-08 -0.131579E-10
 -0.343301E-09 -0.112099E-07 -0.275456E-10
 -0.748723E-09 -0.215938E-07 -0.514669E-10
 -0.145131E-08 -0.367931E-07 -0.853372E-10
 -0.249238E-08 -0.550591E-07 -0.125197E-09
 -0.377007E-08 -0.716150E-07 -0.159842E-09
 -0.497493E-08 -0.796880E-07 -0.173886E-09
 -0.563372E-08 -0.739063E-07 -0.158390E-09
 -0.531117E-08 -0.544943E-07 -0.114223E-09
 -0.390589E-08 -0.288392E-07 -0.580211E-10
 -0.184534E-08 -0.789345E-08 -0.135192E-10
  0.165116E-10  0.109798E-08  0.462673E-11
  0.815831E-09  0.659873E-10  0.132837E-11
  0.171040E-09 -0.122082E-08 -0.198540E-11
 -0.158885E-08  0.720501E-08  0.160615E-10
 -0.362606E-08  0.277087E-07  0.602664E-10
 -0.507687E-08  0.533762E-07  0.115946E-09
 -0.548000E-08  0.732604E-07  0.159425E-09
 -0.490055E-08  0.797041E-07  0.174240E-09
 -0.375163E-08  0.721662E-07  0.159712E-09
 -0.250213E-08  0.558499E-07  0.124807E-09
 -0.146872E-08  0.375484E-07  0.848971E-10
 -0.763486E-09  0.221636E-07  0.511152E-10
 -0.352682E-09  0.115693E-07  0.273176E-10
 -0.144990E-09  0.536811E-08  0.130309E-10
 -0.530407E-10  0.222230E-08  0.557101E-11
 -0.172330E-10  0.823124E-09  0.214119E-11
 -0.495191E-11  0.273359E-09  0.741603E-12
 -0.124894E-11  0.815333E-10  0.231875E-12
 -0.263788E-11 -0.724085E-10 -0.360165E-12
 -0.101692E-10 -0.242450E-09 -0.114454E-11
 -0.348240E-10 -0.729911E-09 -0.328161E-11
 -0.106339E-09 -0.197226E-08 -0.847369E-11
 -0.290337E-09 -0.477254E-08 -0.196537E-10
 -0.709757E-09 -0.103138E-07 -0.408048E-10
 -0.155429E-08 -0.198328E-07 -0.754799E-10
 -0.304829E-08 -0.337684E-07 -0.123602E-09
 -0.534922E-08 -0.505628E-07 -0.178016E-09
 -0.838589E-08 -0.659279E-07 -0.221616E-09
 -0.117226E-07 -0.737573E-07 -0.233369E-09
 -0.145890E-07 -0.691514E-07 -0.198220E-09
 -0.161710E-07 -0.521524E-07 -0.123523E-09
 -0.160768E-07 -0.291702E-07 -0.374846E-10
 -0.146800E-07 -0.983998E-08  0.211676E-10
 -0.130233E-07 -0.627475E-09  0.309671E-10
 -0.122404E-07 -0.458216E-11  0.270465E-11
 -0.128434E-07  0.404699E-09 -0.253677E-10
 -0.143890E-07  0.914880E-08 -0.152644E-10
 -0.157757E-07  0.281300E-07  0.441239E-10
 -0.159435E-07  0.511639E-07  0.130282E-09
 -0.144712E-07  0.686113E-07  0.205089E-09
 -0.117024E-07  0.738196E-07  0.239841E-09
 -0.842462E-08  0.664671E-07  0.227149E-09
 -0.540743E-08  0.513081E-07  0.182278E-09
 -0.310036E-08  0.344715E-07  0.126545E-09
 -0.159047E-08  0.203604E-07  0.773096E-10
 -0.730733E-09  0.106458E-07  0.418282E-10
 -0.300794E-09  0.495227E-08  0.201679E-10
 -0.110892E-09  0.205719E-08  0.870625E-11
 -0.365706E-10  0.765259E-09  0.337642E-11
 -0.107629E-10  0.255488E-09  0.117941E-11
 -0.281728E-11  0.766891E-10  0.371742E-12
 -0.456875E-11 -0.651717E-10 -0.414457E-12
 -0.170947E-10 -0.216249E-09 -0.130493E-11
 -0.573204E-10 -0.646114E-09 -0.370568E-11
 -0.172581E-09 -0.173496E-08 -0.947023E-11
 -0.467237E-09 -0.417730E-08 -0.217151E-10
 -0.113851E-08 -0.899292E-08 -0.444945E-10
 -0.249831E-08 -0.172480E-07 -0.810007E-10
 -0.493888E-08 -0.293316E-07 -0.129966E-09
 -0.879908E-08 -0.439419E-07 -0.181793E-09
 -0.141352E-07 -0.574621E-07 -0.216693E-09
 -0.205017E-07 -0.647157E-07 -0.211822E-09
 -0.269250E-07 -0.614852E-07 -0.154680E-09
 -0.322132E-07 -0.476309E-07 -0.573853E-10
 -0.355184E-07 -0.283069E-07  0.413267E-10
 -0.368098E-07 -0.114123E-07  0.933172E-10
 -0.368611E-07 -0.235352E-08  0.751531E-10
 -0.366778E-07 -0.738030E-10  0.452090E-11
 -0.367367E-07  0.204259E-08 -0.660345E-10
 -0.366253E-07  0.107493E-07 -0.839079E-10
 -0.353641E-07  0.274018E-07 -0.308720E-10
 -0.321553E-07  0.468138E-07  0.679886E-10
 -0.269785E-07  0.610734E-07  0.165607E-09
 -0.206343E-07  0.648215E-07  0.222320E-09
 -0.142955E-07  0.579667E-07  0.225877E-09
 -0.894359E-08  0.446105E-07  0.189029E-09
 -0.504577E-08  0.299533E-07  0.135070E-09
 -0.256570E-08  0.177115E-07  0.842313E-10
 -0.117543E-08  0.928388E-08  0.463271E-10
 -0.485013E-09  0.433474E-08  0.226474E-10
 -0.180156E-09  0.180942E-08  0.989649E-11
 -0.601900E-10  0.677161E-09  0.388103E-11
 -0.180642E-10  0.227731E-09  0.136992E-11
 -0.486149E-11  0.689537E-10  0.436179E-12
 -0.642555E-11 -0.554895E-10 -0.399758E-12
 -0.235252E-10 -0.182175E-09 -0.124334E-11
 -0.776211E-10 -0.539425E-09 -0.348509E-11
 -0.231038E-09 -0.143760E-08 -0.878074E-11
 -0.620810E-09 -0.344018E-08 -0.198143E-10
 -0.150694E-08 -0.737076E-08 -0.398415E-10
 -0.330647E-08 -0.140891E-07 -0.708428E-10
 -0.656236E-08 -0.239160E-07 -0.110140E-09
 -0.117922E-07 -0.358316E-07 -0.147010E-09
 -0.192129E-07 -0.469813E-07 -0.162131E-09
 -0.284518E-07 -0.532604E-07 -0.135212E-09
 -0.384517E-07 -0.512722E-07 -0.587916E-10
 -0.477429E-07 -0.407579E-07  0.487128E-10
 -0.550267E-07 -0.255644E-07  0.143190E-09
 -0.597276E-07 -0.117217E-07  0.174204E-09
 -0.620987E-07 -0.344991E-08  0.120580E-09
 -0.627690E-07 -0.117624E-09  0.604623E-11
 -0.620728E-07  0.309993E-08 -0.108538E-09
 -0.597220E-07  0.111302E-07 -0.162198E-09
 -0.551002E-07  0.248261E-07 -0.131053E-09
 -0.479264E-07  0.401268E-07 -0.362683E-10
 -0.387283E-07  0.509841E-07  0.712980E-10
 -0.287683E-07  0.533890E-07  0.147085E-09
 -0.195095E-07  0.474223E-07  0.172480E-09