<?xml version="1.0"?>
 <VTKFile type="ImageData" version="0.1" byte_order="LittleEndian">
   <ImageData WholeExtent="           0          32           0          32           0          32 " Origin="  -8.0000000000000000       -8.0000000000000000       -8.0000000000000000      " Spacing="  0.50000000000000000       0.50000000000000000       0.50000000000000000      ">
   <Piece Extent="           0          32           0          32           0          32 ">
   <PointData Scalars="scalars">
   <DataArray Name="vectors" type="Float64" NumberOfComponents="3" Format="ascii">
  0.331557E-14 -0.337706E-14 -0.225819E-17
  0.162804E-13 -0.157331E-13 -0.924428E-17
  0.643226E-13 -0.576055E-13 -0.398406E-16
  0.216309E-12 -0.176865E-12 -0.162826E-15
  0.633389E-12 -0.466839E-12 -0.586236E-15
  0.164216E-11 -0.107525E-11 -0.185144E-14
  0.379544E-11 -0.217144E-11 -0.508934E-14
  0.786568E-11 -0.385257E-11 -0.122639E-13
  0.146843E-10 -0.600088E-11 -0.259545E-13
  0.248017E-10 -0.818014E-11 -0.483052E-13
  0.380754E-10 -0.970268E-11 -0.789954E-13
  0.534281E-10 -0.992700E-11 -0.113042E-12
  0.690146E-10 -0.865370E-11 -0.140181E-12
  0.828011E-10 -0.631995E-11 -0.147533E-12
  0.932406E-10 -0.376224E-11 -0.125449E-12
  0.996042E-10 -0.165379E-11 -0.737406E-13
  0.101782E-09 -0.520107E-13 -0.408793E-14
  0.998170E-10  0.154002E-11  0.639004E-13
  0.936625E-10  0.363243E-11  0.111306E-12
  0.834070E-10  0.619260E-11  0.128245E-12
  0.697436E-10  0.856305E-11  0.116936E-12
  0.541886E-10  0.989929E-11  0.884554E-13
  0.387715E-10  0.973930E-11  0.560084E-13
  0.253643E-10  0.825901E-11  0.291602E-13
  0.150875E-10  0.609133E-11  0.116655E-13
  0.812296E-11  0.393070E-11  0.266634E-14
  0.394202E-11  0.222677E-11 -0.728710E-15
  0.171696E-11  0.110856E-11 -0.133684E-14
  0.667664E-12  0.484172E-12 -0.993803E-15
  0.230142E-12  0.184580E-12 -0.547752E-15
  0.696017E-13  0.608109E-13 -0.249965E-15
  0.180622E-13  0.168890E-13 -0.978931E-16
  0.386221E-14  0.375162E-14 -0.336585E-16
  0.148083E-13 -0.160620E-13 -0.426859E-17
  0.639978E-13 -0.657296E-13 -0.197580E-16
  0.236117E-12 -0.225209E-12 -0.992732E-16
  0.762215E-12 -0.665506E-12 -0.440058E-15
  0.217725E-11 -0.171634E-11 -0.168585E-14
  0.554501E-11 -0.388881E-11 -0.550588E-14
  0.126573E-10 -0.776284E-11 -0.155081E-13
  0.260003E-10 -0.136564E-10 -0.379743E-13
  0.482342E-10 -0.211325E-10 -0.812922E-13
  0.811037E-10 -0.286505E-10 -0.152588E-12
  0.124123E-09 -0.338125E-10 -0.251155E-12
  0.173810E-09 -0.344106E-10 -0.361202E-12
  0.224225E-09 -0.298037E-10 -0.449648E-12
  0.268827E-09 -0.215792E-10 -0.474585E-12
  0.302628E-09 -0.126987E-10 -0.404293E-12
  0.323256E-09 -0.551439E-11 -0.237718E-12
  0.330326E-09 -0.180653E-12 -0.125420E-13
  0.323967E-09  0.511851E-11  0.207499E-12
  0.304035E-09  0.122435E-10  0.360835E-12
  0.270845E-09  0.211324E-10  0.415260E-12
  0.226653E-09  0.294895E-10  0.378103E-12
  0.176343E-09  0.343248E-10  0.285486E-12
  0.126444E-09  0.339612E-10  0.180339E-12
  0.829838E-10  0.289536E-10  0.936017E-13
  0.495856E-10  0.214778E-10  0.372735E-13
  0.268657E-10  0.139553E-10  0.842061E-14
  0.131524E-10  0.797595E-11 -0.239474E-14
  0.579886E-11  0.401826E-11 -0.429821E-14
  0.229417E-11  0.178460E-11 -0.317394E-14
  0.810729E-12  0.697098E-12 -0.173898E-14
  0.254294E-12  0.238191E-12 -0.787398E-15
  0.701700E-13  0.704907E-13 -0.307454E-15
  0.167080E-13  0.176295E-13 -0.105228E-15
  0.520434E-13 -0.613174E-13  0.256549E-17
  0.210658E-12 -0.234167E-12 -0.614656E-17
  0.748007E-12 -0.771947E-12 -0.133838E-15
  0.235311E-11 -0.222404E-11 -0.865916E-15
  0.660359E-11 -0.563902E-11 -0.387790E-14
  0.166096E-10 -0.126252E-10 -0.137534E-13
  0.375764E-10 -0.249853E-10 -0.406463E-13
  0.766908E-10 -0.436673E-10 -0.102610E-12
  0.141608E-09 -0.672200E-10 -0.224226E-12
  0.237311E-09 -0.907183E-10 -0.427049E-12
  0.362331E-09 -0.106583E-09 -0.710419E-12
  0.506571E-09 -0.107918E-09 -0.102981E-11
  0.652861E-09 -0.928578E-10 -0.128953E-11
  0.782293E-09 -0.666157E-10 -0.136683E-11
  0.880433E-09 -0.387034E-10 -0.116758E-11
  0.940370E-09 -0.165704E-10 -0.687046E-12
  0.960934E-09 -0.558363E-12 -0.344691E-13
  0.942462E-09  0.153389E-10  0.603762E-12
  0.884572E-09  0.372725E-10  0.104728E-11
  0.788231E-09  0.652034E-10  0.120209E-11
  0.660003E-09  0.918693E-10  0.109045E-11
  0.514029E-09  0.107669E-09  0.818833E-12
  0.369172E-09  0.107097E-09  0.512907E-12
  0.242858E-09  0.917365E-10  0.262433E-12
  0.145603E-09  0.683760E-10  0.101352E-12
  0.792537E-10  0.446700E-10  0.201229E-13
  0.390460E-10  0.257029E-10 -0.929952E-14
  0.173648E-10  0.130635E-10 -0.135768E-13
  0.695229E-11  0.587156E-11 -0.965481E-14
  0.249810E-11  0.233253E-11 -0.520275E-14
  0.802427E-12  0.816787E-12 -0.232849E-14
  0.229137E-12  0.250723E-12 -0.901302E-15
  0.577383E-13  0.668112E-13 -0.305291E-15
  0.153401E-12 -0.199080E-12  0.658176E-16
  0.597870E-12 -0.729602E-12  0.176444E-15
  0.207017E-11 -0.234356E-11  0.237259E-15
  0.640012E-11 -0.663501E-11 -0.667197E-15
  0.177399E-10 -0.166189E-10 -0.623355E-14
  0.442218E-10 -0.368818E-10 -0.273844E-13
  0.993891E-10 -0.725107E-10 -0.894198E-13
  0.201866E-09 -0.126079E-09 -0.238737E-12
  0.371413E-09 -0.193249E-09 -0.540258E-12
  0.620794E-09 -0.259763E-09 -0.105330E-11
  0.946044E-09 -0.303897E-09 -0.178115E-11
  0.132087E-08 -0.306110E-09 -0.261247E-11
  0.170074E-08 -0.261521E-09 -0.329929E-11
  0.203670E-08 -0.185656E-09 -0.351813E-11
  0.229139E-08 -0.106238E-09 -0.301685E-11
  0.244693E-08 -0.446909E-10 -0.177755E-11
  0.250030E-08 -0.153899E-11 -0.844547E-13
  0.245236E-08  0.412639E-10  0.157233E-11
  0.230215E-08  0.102194E-09  0.271785E-11
  0.205215E-08  0.181623E-09  0.310625E-11
  0.171935E-08  0.258692E-09  0.279970E-11
  0.134032E-08  0.305423E-09  0.208168E-11
  0.963904E-09  0.305437E-09  0.128335E-11
  0.635296E-09  0.262784E-09  0.637911E-12
  0.381868E-09  0.196678E-09  0.229974E-12
  0.208582E-09  0.129059E-09  0.303801E-13
  0.103245E-09  0.746494E-10 -0.367237E-13
  0.462052E-10  0.381920E-10 -0.416055E-13
  0.186565E-10  0.173166E-10 -0.278975E-13
  0.678140E-11  0.696170E-11 -0.146206E-13
  0.221326E-11  0.247916E-11 -0.644062E-14
  0.646405E-12  0.779776E-12 -0.245595E-14
  0.168340E-12  0.215753E-12 -0.825110E-15
  0.388649E-12 -0.562590E-12  0.342322E-15
  0.148024E-11 -0.201123E-11  0.104574E-14
  0.503947E-11 -0.634655E-11  0.245407E-14
  0.153914E-10 -0.177468E-10  0.358590E-14
  0.422832E-10 -0.440563E-10 -0.205094E-14
  0.104708E-09 -0.971299E-10 -0.367083E-13
  0.234166E-09 -0.189994E-09 -0.155808E-12
  0.473823E-09 -0.328993E-09 -0.465699E-12
  0.869284E-09 -0.502413E-09 -0.112079E-11
  0.144974E-08 -0.672839E-09 -0.226954E-11
  0.220545E-08 -0.783786E-09 -0.393530E-11
  0.307501E-08 -0.785039E-09 -0.587275E-11
  0.395498E-08 -0.665186E-09 -0.750718E-11
  0.473207E-08 -0.466270E-09 -0.807236E-11
  0.532029E-08 -0.261755E-09 -0.695899E-11
  0.567903E-08 -0.107578E-09 -0.410861E-11
  0.580197E-08 -0.377876E-11 -0.183716E-12
  0.569143E-08  0.990480E-10  0.365811E-11
  0.534492E-08  0.251464E-09  0.629360E-11
  0.476754E-08  0.455847E-09  0.714743E-11
  0.399782E-08  0.657799E-09  0.637893E-11
  0.311991E-08  0.783225E-09  0.466954E-11
  0.224677E-08  0.787827E-09  0.280388E-11
  0.148334E-08  0.680803E-09  0.132361E-11
  0.893545E-09  0.511481E-09  0.413281E-12
  0.489424E-09  0.336893E-09 -0.975938E-14
  0.243129E-09  0.195676E-09 -0.132122E-12
  0.109321E-09  0.100618E-09 -0.120736E-12
  0.444151E-10  0.459178E-10 -0.757945E-13
  0.162779E-10  0.186200E-10 -0.384206E-13
  0.537183E-11  0.670953E-11 -0.165710E-13
  0.159280E-11  0.214574E-11 -0.622893E-14
  0.423158E-12  0.607216E-12 -0.206439E-14
  0.858737E-12 -0.140768E-11  0.124487E-14
  0.321764E-11 -0.494341E-11  0.396523E-14
  0.108250E-10 -0.154058E-10  0.104880E-13
  0.327715E-10 -0.426950E-10  0.220033E-13
  0.894350E-10 -0.105294E-09  0.309721E-13
  0.220354E-09 -0.230979E-09  0.322197E-16
  0.490868E-09 -0.450013E-09 -0.176373E-12
  0.990167E-09 -0.776564E-09 -0.714871E-12
  0.181199E-08 -0.118198E-08 -0.194585E-11
  0.301548E-08 -0.157713E-08 -0.420705E-11
  0.457877E-08 -0.182869E-08 -0.759067E-11
  0.637311E-08 -0.181964E-08 -0.116249E-10
  0.818378E-08 -0.152643E-08 -0.151209E-10
  0.977743E-08 -0.105287E-08 -0.164510E-10
  0.109792E-07 -0.576194E-09 -0.142866E-10
  0.117095E-07 -0.229176E-09 -0.846087E-11
  0.119590E-07 -0.823105E-11 -0.353580E-12
  0.117343E-07  0.210227E-09  0.758228E-11
  0.110286E-07  0.552610E-09  0.129641E-10
  0.984898E-08  0.102844E-08  0.145898E-10
  0.827068E-08  0.150881E-08  0.128333E-10
  0.646461E-08  0.181505E-08  0.917315E-11
  0.466329E-08  0.183799E-08  0.527679E-11
  0.308442E-08  0.159585E-08  0.226731E-11
  0.186186E-08  0.120343E-08  0.492194E-12
  0.102228E-08  0.795320E-09 -0.263302E-12
  0.509334E-09  0.463537E-09 -0.416427E-12
  0.229862E-09  0.239297E-09 -0.324253E-12
  0.938280E-10  0.109738E-09 -0.191235E-12
  0.345969E-10  0.447814E-10 -0.936697E-13
  0.115085E-10  0.162733E-10 -0.395007E-13
  0.344859E-11  0.526476E-11 -0.146031E-13
  0.929334E-12  0.151415E-11 -0.477172E-14
  0.166215E-11 -0.314072E-11  0.365670E-14
  0.615670E-11 -0.108928E-10  0.118326E-13
  0.205341E-10 -0.336451E-10  0.329324E-13
  0.617550E-10 -0.926350E-10  0.772464E-13
  0.167670E-09 -0.227335E-09  0.145741E-12
  0.411436E-09 -0.496778E-09  0.191481E-12
  0.913488E-09 -0.964745E-09  0.430932E-13
  0.183747E-08 -0.165982E-08 -0.689502E-12
  0.335404E-08 -0.251832E-08 -0.264157E-11
  0.556836E-08 -0.334720E-08 -0.651062E-11
  0.843494E-08 -0.386047E-08 -0.125760E-10
  0.117117E-07 -0.381089E-08 -0.200590E-10
  0.150011E-07 -0.315635E-08 -0.267773E-10
  0.178778E-07 -0.213115E-08 -0.296258E-10
  0.200311E-07 -0.112546E-08 -0.259956E-10
  0.213298E-07 -0.426072E-09 -0.154647E-10
  0.217711E-07 -0.157685E-10 -0.600601E-12
  0.213725E-07  0.388683E-09  0.139465E-10
  0.201169E-07  0.107683E-08  0.236540E-10
  0.180034E-07  0.207921E-08  0.262788E-10
  0.151553E-07  0.311785E-08  0.226247E-10
  0.118753E-07  0.379983E-08  0.155797E-10
  0.858711E-08  0.387924E-08  0.832905E-11
  0.569306E-08  0.338648E-08  0.293788E-11
  0.344456E-08  0.256383E-08 -0.429592E-13
  0.189589E-08  0.169982E-08 -0.112039E-11
  0.947135E-09  0.993673E-09 -0.114134E-11
  0.428773E-09  0.514602E-09 -0.792543E-12
  0.175681E-09  0.236867E-09 -0.442885E-12
  0.650815E-10  0.971121E-10 -0.210077E-12
  0.217778E-10  0.355061E-10 -0.866649E-13
  0.657604E-11  0.115814E-10 -0.315122E-13
  0.178988E-11  0.336864E-11 -0.101856E-13
  0.282351E-11 -0.628564E-11  0.900626E-14
  0.103695E-10 -0.216090E-10  0.295010E-13
  0.343569E-10 -0.663174E-10  0.844030E-13
  0.102789E-09 -0.181719E-09  0.208791E-12
  0.277904E-09 -0.444312E-09  0.437727E-12
  0.679517E-09 -0.968001E-09  0.743947E-12
  0.150397E-08 -0.187478E-08  0.899789E-12
  0.301635E-08 -0.321659E-08  0.289072E-12
  0.548982E-08 -0.486435E-08 -0.218440E-11
  0.908598E-08 -0.643724E-08 -0.782839E-11
  0.137168E-07 -0.737713E-08 -0.173432E-10
  0.189737E-07 -0.720986E-08 -0.296615E-10
  0.242034E-07 -0.587289E-08 -0.412386E-10
  0.287239E-07 -0.385098E-08 -0.467786E-10
  0.320609E-07 -0.192958E-08 -0.416594E-10
  0.340452E-07 -0.673372E-09 -0.249578E-10
  0.347120E-07 -0.261228E-10 -0.896255E-12
  0.341068E-07  0.608441E-09  0.226410E-10
  0.321871E-07  0.183949E-08  0.379759E-10
  0.289126E-07  0.375065E-08  0.414121E-10
  0.244393E-07  0.579579E-08  0.345106E-10
  0.192279E-07  0.718478E-08  0.223489E-10
  0.139558E-07  0.741012E-08  0.103706E-10
  0.928353E-08  0.651094E-08  0.193683E-11
  0.563406E-08  0.495111E-08 -0.225767E-11
  0.310984E-08  0.329340E-08 -0.329164E-11
  0.155796E-08  0.193054E-08 -0.272511E-11
  0.707380E-09  0.100243E-08 -0.174413E-11
  0.290787E-09  0.462746E-09 -0.932468E-12
  0.108137E-09  0.190378E-09 -0.429963E-12
  0.363544E-10  0.699149E-10 -0.173834E-12
  0.110416E-10  0.229386E-10 -0.622288E-13
  0.302760E-11  0.672472E-11 -0.198545E-13
  0.420451E-11 -0.113398E-10  0.190960E-13
  0.153385E-10 -0.387411E-10  0.630307E-13
  0.505490E-10 -0.118347E-09  0.183417E-12
  0.150563E-09 -0.323155E-09  0.467751E-12
  0.405516E-09 -0.787932E-09  0.103433E-11
  0.988105E-09 -0.171249E-08  0.194401E-11
  0.217960E-08 -0.330879E-08  0.297519E-11
  0.435608E-08 -0.566152E-08  0.328358E-11
  0.789764E-08 -0.853137E-08  0.117510E-11
  0.130134E-07 -0.112325E-07 -0.557147E-11
  0.195446E-07 -0.127716E-07 -0.184564E-10
  0.268732E-07 -0.123231E-07 -0.364366E-10
  0.340492E-07 -0.981721E-08 -0.544008E-10
  0.401227E-07 -0.617593E-08 -0.642855E-10
  0.444898E-07 -0.284894E-08 -0.587065E-10
  0.470152E-07 -0.852072E-09 -0.357627E-10
  0.478455E-07 -0.361223E-10 -0.117492E-11
  0.470857E-07  0.754470E-09  0.326528E-10
  0.446400E-07  0.269946E-08  0.535873E-10
  0.403570E-07  0.599975E-08  0.566731E-10
  0.343531E-07  0.967549E-08  0.447249E-10
  0.272099E-07  0.122702E-07  0.258228E-10
  0.198676E-07  0.128214E-07  0.826097E-11
  0.132843E-07  0.113560E-07 -0.308939E-11
  0.809746E-08  0.868020E-08 -0.773304E-11
  0.448655E-08  0.579459E-08 -0.773119E-11
  0.225532E-08  0.340589E-08 -0.568578E-11
  0.102731E-08  0.177261E-08 -0.343191E-11
  0.423677E-09  0.820160E-09 -0.177116E-11
  0.158108E-09  0.338298E-09 -0.797322E-12
  0.533652E-10  0.124635E-09 -0.316683E-12
  0.162847E-10  0.410616E-10 -0.111780E-12
  0.449107E-11  0.121044E-10 -0.352361E-13
  0.546846E-11 -0.185278E-10  0.351945E-13
  0.198368E-10 -0.630191E-10  0.116788E-12
  0.650619E-10 -0.191881E-09  0.343691E-12
  0.192977E-09 -0.522618E-09  0.893508E-12
  0.517715E-09 -0.127159E-08  0.203883E-11
  0.125657E-08 -0.275818E-08  0.403890E-11
  0.276027E-08 -0.531751E-08  0.680850E-11
  0.549063E-08 -0.907291E-08  0.936410E-11
  0.989926E-08 -0.136172E-07  0.936335E-11
  0.162018E-07 -0.178191E-07  0.339774E-11
  0.241340E-07 -0.200634E-07 -0.113385E-10
  0.328566E-07 -0.190404E-07 -0.342446E-10
  0.411563E-07 -0.147183E-07 -0.590692E-10
  0.479027E-07 -0.871268E-08 -0.748636E-10
  0.524986E-07 -0.348336E-08 -0.710119E-10
  0.549958E-07 -0.704690E-09 -0.435900E-10
  0.557741E-07 -0.380002E-10 -0.133406E-11
  0.550487E-07  0.581932E-09  0.399310E-10
  0.526255E-07  0.326211E-08  0.647584E-10
  0.481243E-07  0.843107E-08  0.653379E-10
  0.414686E-07  0.144788E-07  0.467805E-10
  0.332232E-07  0.189376E-07  0.206240E-10
  0.244998E-07  0.201259E-07 -0.184685E-11
  0.165168E-07  0.180040E-07 -0.146773E-10
  0.101360E-07  0.138473E-07 -0.179487E-10
  0.564722E-08  0.928139E-08 -0.152111E-10
  0.285197E-08  0.547067E-08 -0.103836E-10
  0.130435E-08  0.285335E-08 -0.600623E-11
  0.539931E-09  0.132270E-08 -0.301479E-11
  0.202226E-09  0.546643E-09 -0.133055E-11
  0.685164E-10  0.201851E-09 -0.520519E-12
  0.209966E-10  0.666937E-10 -0.181481E-12
  0.581897E-11  0.197359E-10 -0.566079E-13
  0.617284E-11 -0.275572E-10  0.565922E-13
  0.222714E-10 -0.934455E-10  0.188512E-12
  0.726949E-10 -0.283878E-09  0.559085E-12
  0.214632E-09 -0.771800E-09  0.147226E-11
  0.573148E-09 -0.187488E-08  0.342751E-11
  0.138416E-08 -0.405987E-08  0.700627E-11
  0.302304E-08 -0.781036E-08  0.124322E-10
  0.597169E-08 -0.132859E-07  0.187686E-10
  0.106741E-07 -0.198486E-07  0.231209E-10
  0.172813E-07 -0.257837E-07  0.208350E-10
  0.253912E-07 -0.286798E-07  0.729979E-11
  0.339838E-07 -0.266422E-07 -0.180576E-10
  0.417074E-07 -0.197648E-07 -0.486388E-10
  0.474487E-07 -0.106602E-07 -0.712725E-10
  0.508471E-07 -0.317805E-08 -0.717796E-10
  0.523521E-07  0.144270E-09 -0.456091E-10
  0.527260E-07 -0.195795E-10 -0.129118E-11
  0.523477E-07 -0.262920E-09  0.419105E-10
  0.508777E-07  0.288750E-08  0.651270E-10
  0.475630E-07  0.102496E-07  0.608834E-10
  0.419264E-07  0.193920E-07  0.350057E-10
  0.342846E-07  0.264591E-07  0.275526E-11
  0.257196E-07  0.287399E-07 -0.222485E-10
  0.175803E-07  0.260303E-07 -0.337182E-10
  0.109071E-07  0.201699E-07 -0.329923E-10
  0.612956E-08  0.135823E-07 -0.255258E-10
  0.311704E-08  0.803001E-08 -0.165812E-10
  0.143369E-08  0.419699E-08 -0.929693E-11
  0.596356E-09  0.194868E-08 -0.456682E-11
  0.224339E-09  0.806523E-09 -0.198344E-11
  0.763295E-10  0.298283E-09 -0.766211E-12
  0.234922E-10  0.987474E-10 -0.264362E-12
  0.654128E-11  0.292963E-10 -0.817127E-13
  0.599108E-11 -0.375437E-10  0.792565E-13
  0.214880E-10 -0.127054E-09  0.264726E-12
  0.697433E-10 -0.385401E-09  0.789357E-12
  0.204742E-09 -0.104653E-08  0.209687E-11
  0.543358E-09 -0.253918E-08  0.494690E-11
  0.130285E-08 -0.549016E-08  0.103158E-10
  0.282082E-08 -0.105395E-07  0.188739E-10
  0.551152E-08 -0.178696E-07  0.299452E-10
  0.971331E-08 -0.265569E-07  0.404335E-10
  0.154371E-07 -0.342013E-07  0.444311E-10
  0.221361E-07 -0.374859E-07  0.356288E-10
  0.287022E-07 -0.338949E-07  0.116215E-10
  0.338361E-07 -0.237751E-07 -0.218180E-10
  0.366871E-07 -0.110330E-07 -0.506688E-10
  0.373664E-07 -0.124026E-08 -0.586424E-10
  0.368949E-07  0.205239E-08 -0.393997E-10
  0.365138E-07  0.317320E-10 -0.102043E-11
  0.367967E-07 -0.211338E-08  0.362801E-10
  0.372318E-07  0.903967E-09  0.526399E-10
  0.366010E-07  0.104845E-07  0.409733E-10
  0.338562E-07  0.232393E-07  0.883132E-11
  0.288326E-07  0.335973E-07 -0.264030E-10
  0.223355E-07  0.375169E-07 -0.502346E-10
  0.156484E-07  0.344946E-07 -0.571317E-10
  0.989243E-08  0.269640E-07 -0.502346E-10
  0.563931E-08  0.182538E-07 -0.366961E-10
  0.289949E-08  0.108274E-07 -0.230402E-10
  0.134523E-08  0.567094E-08 -0.126261E-10
  0.563512E-09  0.263677E-08 -0.610025E-11
  0.213253E-09  0.109250E-08 -0.261599E-11
  0.729478E-10  0.404468E-09 -0.100027E-11
  0.225668E-10  0.134064E-09 -0.342143E-12
  0.631650E-11  0.398382E-10 -0.104947E-12
  0.493545E-11 -0.472207E-10  0.958415E-13
  0.175709E-10 -0.159606E-09  0.320695E-12
  0.566056E-10 -0.483707E-09  0.959662E-12
  0.164856E-09 -0.131243E-08  0.256406E-11
  0.433541E-09 -0.318140E-08  0.610192E-11
  0.102815E-08 -0.686966E-08  0.128883E-10
  0.219526E-08 -0.131599E-07  0.240330E-10
  0.421155E-08 -0.222356E-07  0.392565E-10
  0.724164E-08 -0.328568E-07  0.556298E-10
  0.111248E-07 -0.419078E-07  0.666341E-10
  0.152104E-07 -0.451566E-07  0.647236E-10
  0.184303E-07 -0.395162E-07  0.456489E-10
  0.197222E-07 -0.257217E-07  0.134327E-10
  0.186688E-07 -0.917639E-08 -0.188448E-10
  0.159412E-07  0.264041E-08 -0.347575E-10
  0.131221E-07  0.511820E-08 -0.265089E-10
  0.118713E-07  0.121068E-09 -0.586939E-12
  0.129235E-07 -0.505526E-08  0.244553E-10
  0.156249E-07 -0.298121E-08  0.303423E-10
  0.183519E-07  0.850097E-08  0.113602E-10
  0.194993E-07  0.250087E-07 -0.237214E-10
  0.183377E-07  0.390756E-07 -0.575544E-10
  0.152276E-07  0.451266E-07 -0.766282E-10
  0.112024E-07  0.422196E-07 -0.770815E-10
  0.733221E-08  0.333285E-07 -0.637543E-10
  0.428628E-08  0.226936E-07 -0.448886E-10
  0.224514E-08  0.135077E-07 -0.275300E-10
  0.105638E-08  0.708952E-08 -0.148384E-10
  0.447390E-09  0.330051E-08 -0.708075E-11
  0.170821E-09  0.136862E-08 -0.300694E-11
  0.588779E-10  0.507015E-09 -0.114052E-11
  0.183401E-10  0.168166E-09 -0.387415E-12
  0.516755E-11  0.500172E-10 -0.118090E-12
  0.339034E-11 -0.553592E-10  0.979768E-13
  0.119488E-10 -0.186989E-09  0.328128E-12
  0.380903E-10 -0.566422E-09  0.983841E-12
  0.109641E-09 -0.153613E-08  0.263741E-11
  0.284360E-09 -0.372113E-08  0.630874E-11
  0.662703E-09 -0.802593E-08  0.134271E-10
  0.138274E-08 -0.153446E-07  0.253222E-10
  0.256985E-08 -0.258395E-07  0.420705E-10
  0.422178E-08 -0.379636E-07  0.612861E-10
  0.605522E-08 -0.479439E-07  0.767631E-10
  0.741807E-08 -0.507389E-07  0.809022E-10
  0.741515E-08 -0.428105E-07  0.684855E-10
  0.532142E-08 -0.253686E-07  0.412212E-10
  0.113682E-08 -0.532902E-08  0.105015E-10
 -0.408653E-08  0.797396E-08 -0.990312E-11
 -0.850242E-08  0.895622E-08 -0.119078E-10
 -0.103173E-07  0.238004E-09 -0.142928E-12
 -0.875864E-08 -0.871705E-08  0.110414E-10
 -0.451301E-08 -0.827602E-08  0.747784E-11
  0.668762E-09  0.455493E-08 -0.149634E-10
  0.492485E-08  0.244875E-07 -0.475351E-10
  0.714843E-08  0.422169E-07 -0.758930E-10
  0.728083E-08  0.506237E-07 -0.883644E-10
  0.601099E-08  0.482439E-07 -0.833419E-10
  0.422650E-08  0.384706E-07 -0.664219E-10
  0.259047E-08  0.263478E-07 -0.456455E-10
  0.140203E-08  0.157362E-07 -0.275553E-10
  0.675402E-09  0.827535E-08 -0.146817E-10
  0.291122E-09  0.385677E-08 -0.694413E-11
  0.112693E-09  0.160022E-08 -0.292787E-11
  0.392829E-10  0.593016E-09 -0.110381E-11
  0.123570E-10  0.196747E-09 -0.372926E-12
  0.351328E-11  0.585410E-10 -0.113109E-12
  0.187460E-11 -0.611460E-10  0.803479E-13
  0.651914E-11 -0.206472E-09  0.269010E-12
  0.204852E-10 -0.625306E-09  0.806688E-12
  0.580109E-10 -0.169538E-08  0.216403E-11
  0.147484E-09 -0.410498E-08  0.518443E-11
  0.334888E-09 -0.884593E-08  0.110655E-10
  0.673959E-09 -0.168847E-07  0.209693E-10
  0.118730E-08 -0.283518E-07  0.351096E-10
  0.179037E-08 -0.414494E-07  0.519171E-10
  0.220157E-08 -0.518933E-07  0.665242E-10
  0.191177E-08 -0.540347E-07  0.723340E-10
  0.309121E-09 -0.440368E-07  0.656909E-10
 -0.300435E-08 -0.235633E-07  0.470113E-10
 -0.782173E-08 -0.805882E-09  0.234299E-10
 -0.131338E-07  0.133866E-07  0.487795E-11
 -0.173698E-07  0.126719E-07 -0.198368E-11
 -0.190657E-07  0.354640E-09  0.132644E-12
 -0.175985E-07 -0.122495E-07  0.203612E-11
 -0.135213E-07 -0.136263E-07 -0.563319E-11
 -0.826233E-08 -0.307014E-10 -0.250621E-10
 -0.340076E-08  0.225488E-07 -0.493445E-10
  0.135183E-10  0.433093E-07 -0.683283E-10
  0.172691E-08  0.538324E-07 -0.748559E-10
  0.210555E-08  0.521629E-07 -0.686442E-10
  0.175063E-08  0.419662E-07 -0.535038E-10
  0.117593E-08  0.288864E-07 -0.361818E-10
  0.673436E-09  0.173022E-07 -0.216349E-10
  0.336852E-09  0.911362E-08 -0.114441E-10
  0.149109E-09  0.425108E-08 -0.538193E-11
  0.588781E-10  0.176452E-08 -0.225824E-11
  0.208488E-10  0.653999E-09 -0.847654E-12
  0.664554E-11  0.216992E-09 -0.285202E-12
  0.191169E-11  0.645708E-10 -0.861466E-13
  0.685577E-12 -0.642747E-10  0.443791E-13
  0.234612E-11 -0.217011E-09  0.148150E-12
  0.725196E-11 -0.657167E-09  0.442553E-12
  0.201679E-10 -0.178154E-08  0.118172E-11
  0.501818E-10 -0.431243E-08  0.281644E-11
  0.110796E-09 -0.928789E-08  0.597856E-11
  0.214176E-09 -0.177103E-07  0.112695E-10
  0.353709E-09 -0.296847E-07  0.187860E-10
  0.472778E-09 -0.432623E-07  0.278681E-10
  0.430632E-09 -0.538623E-07  0.353510E-10
 -0.269212E-11 -0.554919E-07  0.389344E-10
 -0.108466E-08 -0.441652E-07  0.361198E-10
 -0.295809E-08 -0.218463E-07  0.272238E-10
 -0.548365E-08  0.248969E-08  0.155847E-10
 -0.816296E-08  0.170821E-07  0.565706E-11
 -0.102563E-07  0.151490E-07  0.985018E-12
 -0.110861E-07  0.434316E-09  0.152915E-12
 -0.103665E-07 -0.145985E-07 -0.760187E-12
 -0.835165E-08 -0.172695E-07 -0.555730E-11
 -0.570178E-08 -0.335443E-08 -0.154119E-10
 -0.315957E-08  0.207544E-07 -0.266621E-10
 -0.124103E-08  0.433540E-07 -0.349726E-10
 -0.106737E-09  0.552297E-07 -0.372831E-10
  0.370827E-09  0.541043E-07 -0.335072E-10
  0.443047E-09  0.437760E-07 -0.261941E-10
  0.340965E-09  0.302281E-07 -0.174954E-10
  0.209488E-09  0.181385E-07 -0.104224E-10
  0.109315E-09  0.956373E-08 -0.549741E-11
  0.497685E-10  0.446332E-08 -0.257824E-11
  0.200524E-10  0.185302E-08 -0.107853E-11
  0.721153E-11  0.686833E-09 -0.403359E-12
  0.232790E-11  0.227881E-09 -0.135106E-12
  0.677097E-12  0.678091E-10 -0.405889E-13
 -0.283903E-12 -0.647303E-10 -0.108863E-14
 -0.995599E-12 -0.218538E-09 -0.455551E-14
 -0.313576E-11 -0.661763E-09 -0.175951E-13
 -0.883196E-11 -0.179391E-08 -0.607776E-13
 -0.221112E-10 -0.434207E-08 -0.184869E-12
 -0.487488E-10 -0.935066E-08 -0.491331E-12
 -0.931450E-10 -0.178267E-07 -0.113503E-11
 -0.149434E-09 -0.298704E-07 -0.227217E-11
 -0.186064E-09 -0.435097E-07 -0.391736E-11
 -0.129835E-09 -0.541208E-07 -0.587083E-11
  0.135202E-09 -0.556602E-07 -0.732553E-11
  0.734938E-09 -0.441232E-07 -0.751261E-11
  0.173400E-08 -0.215224E-07 -0.605340E-11
  0.305393E-08  0.304641E-08 -0.347058E-11
  0.443799E-08  0.176855E-07 -0.992058E-12
  0.551210E-08  0.155482E-07  0.167936E-12
  0.593617E-08  0.448457E-09  0.779029E-13
  0.556692E-08 -0.149738E-07 -0.172479E-13
  0.453117E-08 -0.178601E-07  0.129782E-11
  0.316033E-08 -0.391075E-08  0.440288E-11
  0.183048E-08  0.204220E-07  0.814933E-11
  0.807837E-09  0.433001E-07  0.109576E-10
  0.181733E-09  0.553875E-07  0.117459E-10
 -0.104929E-09  0.543558E-07  0.105072E-10
 -0.175313E-09  0.440198E-07  0.800743E-11
 -0.146185E-09  0.304124E-07  0.536665E-11
 -0.929912E-10  0.182546E-07  0.316782E-11
 -0.494204E-10  0.962655E-08  0.166099E-11
 -0.227325E-10  0.449304E-08  0.778127E-12
 -0.921242E-11  0.186543E-08  0.327239E-12
 -0.332354E-11  0.691440E-09  0.123940E-12
 -0.107475E-11  0.229407E-09  0.423639E-13
 -0.313087E-12  0.682616E-10  0.130846E-13
 -0.138222E-11 -0.625157E-10 -0.431869E-13
 -0.482021E-11 -0.211063E-09 -0.145623E-12
 -0.151644E-10 -0.639121E-09 -0.441482E-12
 -0.428982E-10 -0.173257E-08 -0.120149E-11
 -0.108650E-09 -0.419415E-08 -0.292908E-11
 -0.244862E-09 -0.903514E-08 -0.637798E-11
 -0.486375E-09 -0.172369E-07 -0.123551E-10
 -0.837732E-09 -0.289181E-07 -0.211739E-10
 -0.121187E-08 -0.422162E-07 -0.322115E-10
 -0.136041E-08 -0.527208E-07 -0.423974E-10
 -0.855944E-09 -0.546384E-07 -0.470401E-10
  0.797472E-09 -0.440707E-07 -0.437349E-10
  0.389979E-08 -0.228116E-07 -0.319597E-10
  0.823610E-08  0.613499E-09 -0.161488E-10
  0.129238E-07  0.149701E-07 -0.311627E-11
  0.166233E-07  0.137318E-07  0.188246E-11
  0.180963E-07  0.391636E-09  0.316371E-12
  0.168188E-07 -0.132474E-07 -0.129215E-11
  0.132559E-07 -0.151777E-07  0.382383E-11
  0.861455E-08 -0.145145E-08  0.175805E-10
  0.424171E-08  0.217724E-07  0.348558E-10
  0.105418E-08  0.433107E-07  0.483804E-10
 -0.693715E-09  0.544084E-07  0.529760E-10
 -0.127481E-08  0.529729E-07  0.486440E-10
 -0.117558E-08  0.427249E-07  0.377470E-10
 -0.826924E-09  0.294504E-07  0.253824E-10
 -0.485701E-09  0.176545E-07  0.151420E-10
 -0.246735E-09  0.930359E-08  0.799687E-11
 -0.110327E-09  0.434079E-08  0.375948E-11
 -0.438673E-10  0.180197E-08  0.157939E-11
 -0.156112E-10  0.667902E-09  0.594606E-12
 -0.499509E-11  0.221601E-09  0.201024E-12
 -0.144188E-11  0.659387E-10  0.611236E-13
 -0.282391E-11 -0.576052E-10 -0.707467E-13
 -0.995070E-11 -0.194516E-09 -0.237458E-12
 -0.316847E-10 -0.589067E-09 -0.715249E-12
 -0.909926E-10 -0.159711E-08 -0.193036E-11
 -0.235078E-09 -0.386753E-08 -0.465778E-11
 -0.544545E-09 -0.833754E-08 -0.100172E-10
 -0.112585E-08 -0.159280E-07 -0.191171E-10
 -0.206352E-08 -0.267886E-07 -0.321757E-10
 -0.331710E-08 -0.392775E-07 -0.476236E-10
 -0.458909E-08 -0.494304E-07 -0.606106E-10
 -0.525953E-08 -0.519795E-07 -0.649839E-10
 -0.451830E-08 -0.432775E-07 -0.555811E-10
 -0.175543E-08 -0.247047E-07 -0.343605E-10
  0.293234E-08 -0.365299E-08 -0.917464E-11
  0.845890E-08  0.998156E-08  0.830805E-11
  0.130126E-07  0.103353E-07  0.106991E-10
  0.148627E-07  0.284754E-09  0.109030E-11
  0.132675E-07 -0.100194E-07 -0.824692E-11
  0.888611E-08 -0.102477E-07 -0.601908E-11
  0.340752E-08  0.287011E-08  0.118298E-10
 -0.134349E-08  0.237856E-07  0.382946E-10
 -0.422944E-08  0.426387E-07  0.611424E-10
 -0.509773E-08  0.518289E-07  0.717780E-10
 -0.452255E-08  0.497109E-07  0.676378E-10
 -0.330477E-08  0.397783E-07  0.538265E-10
 -0.207300E-08  0.272979E-07  0.369007E-10
 -0.113890E-08  0.163229E-07  0.222594E-10
 -0.554246E-09  0.858977E-08  0.118540E-10
 -0.240615E-09  0.400485E-08  0.560727E-11
 -0.936298E-10  0.166199E-08  0.236634E-11
 -0.327683E-10  0.615952E-09  0.893723E-12
 -0.103413E-10  0.204357E-09  0.302776E-12
 -0.294869E-11  0.608029E-10  0.921639E-13
 -0.443167E-11 -0.501732E-10 -0.789782E-13
 -0.157659E-10 -0.169501E-09 -0.264198E-12
 -0.507297E-10 -0.513480E-09 -0.791759E-12
 -0.147470E-09 -0.139265E-08 -0.212205E-11
 -0.386761E-09 -0.337425E-08 -0.507352E-11
 -0.913628E-09 -0.728148E-08 -0.107805E-10
 -0.193991E-08 -0.139359E-07 -0.202467E-10
 -0.369242E-08 -0.235128E-07 -0.333410E-10
 -0.627776E-08 -0.346638E-07 -0.477185E-10
 -0.948661E-08 -0.440429E-07 -0.577482E-10
 -0.126545E-07 -0.471355E-07 -0.567037E-10
 -0.147555E-07 -0.406985E-07 -0.404356E-10
 -0.148308E-07 -0.256334E-07 -0.119647E-10
 -0.126091E-07 -0.787029E-08  0.173793E-10
 -0.891482E-08  0.446882E-08  0.327195E-10
 -0.545783E-08  0.643747E-08  0.262693E-10
 -0.397768E-08  0.163367E-09  0.313147E-11
 -0.523642E-08 -0.630739E-08 -0.203105E-10
 -0.855543E-08 -0.478491E-08 -0.273424E-10
 -0.122340E-07  0.717487E-08 -0.120682E-10
 -0.145424E-07  0.248741E-07  0.176931E-10
 -0.145985E-07  0.402097E-07  0.471592E-10
 -0.126158E-07  0.470728E-07  0.641594E-10
 -0.952111E-08  0.443419E-07  0.651092E-10
 -0.633879E-08  0.351372E-07  0.540765E-10
 -0.374918E-08  0.239788E-07  0.381420E-10
 -0.198009E-08  0.142920E-07  0.234314E-10
 -0.937222E-09  0.750726E-08  0.126453E-10
 -0.398663E-09  0.349667E-08  0.604170E-11
 -0.152718E-09  0.145036E-08  0.256946E-11
 -0.527741E-10  0.537376E-09  0.976359E-12
 -0.164740E-10  0.178248E-09  0.332380E-12
 -0.465070E-11  0.530169E-10  0.101567E-12
 -0.571591E-11 -0.408643E-10 -0.705270E-13
 -0.204859E-10 -0.138190E-09 -0.235034E-12
 -0.664258E-10 -0.418921E-09 -0.700193E-12
 -0.194741E-09 -0.113691E-08 -0.186070E-11
 -0.515872E-09 -0.275677E-08 -0.439625E-11
 -0.123386E-08 -0.595622E-08 -0.918929E-11
 -0.266235E-08 -0.114225E-07 -0.168621E-10
 -0.517782E-08 -0.193377E-07 -0.268328E-10
 -0.906781E-08 -0.286717E-07 -0.363386E-10
 -0.142876E-07 -0.367861E-07 -0.399069E-10
 -0.202479E-07 -0.400601E-07 -0.315814E-10
 -0.258358E-07 -0.357899E-07 -0.886174E-11
 -0.298089E-07 -0.244523E-07  0.231548E-10
 -0.314442E-07 -0.104495E-07  0.513668E-10
 -0.310358E-07  0.176947E-10  0.600253E-10
 -0.298019E-07  0.305064E-08  0.423829E-10
 -0.291368E-07  0.609649E-10  0.535977E-11
 -0.296735E-07 -0.306864E-08 -0.321104E-10
 -0.308462E-07 -0.347861E-09 -0.507720E-10
 -0.312875E-07  0.987036E-08 -0.430465E-10
 -0.297540E-07  0.238680E-07 -0.151980E-10
 -0.258968E-07  0.354492E-07  0.168697E-10
 -0.203902E-07  0.400681E-07  0.395420E-10
 -0.144570E-07  0.370777E-07  0.472637E-10