<?xml version="1.0"?>
 <VTKFile type="ImageData" version="0.1" byte_order="LittleEndian">
   <ImageData WholeExtent="           0           9           0           9           0           9 " Origin="  -8.0000000000000000       -8.0000000000000000       -2.0000000000000000      " Spacing="   1.7777777777777777        1.7777777777777777       0.44444444444444442      ">
   <Piece Extent="           0           9           0           9           0           9 ">
   <PointData Scalars="scalars">
   <DataArray Name="vectors" type="Float64" NumberOfComponents="3" Format="ascii">
 -0.400659E-07  0.284596E-07  0.110014E-09
 -0.190647E-06  0.255320E-07  0.189269E-08
  0.117771E-05 -0.530575E-06 -0.191719E-08
 -0.107693E-04  0.932612E-05 -0.677282E-07
 -0.863041E-04  0.192218E-04 -0.514228E-06
 -0.863041E-04 -0.192218E-04  0.514228E-06
 -0.107693E-04 -0.932612E-05  0.677282E-07
  0.117771E-05  0.530575E-06  0.191719E-08
 -0.190647E-06 -0.255320E-07 -0.189269E-08
 -0.400659E-07 -0.284596E-07 -0.110014E-09
 -0.116025E-05  0.122136E-05  0.266630E-08
 -0.109981E-04  0.656762E-05  0.705523E-07
 -0.107117E-04 -0.809309E-05 -0.611592E-06
 -0.334710E-04  0.100777E-03  0.838535E-05
 -0.101291E-02  0.476733E-03  0.430678E-05
 -0.101291E-02 -0.476733E-03 -0.430678E-05
 -0.334710E-04 -0.100777E-03 -0.838535E-05
 -0.107117E-04  0.809309E-05  0.611592E-06
 -0.109981E-04 -0.656762E-05 -0.705523E-07
 -0.116025E-05 -0.122136E-05 -0.266630E-08
 -0.716743E-05  0.133133E-04 -0.574573E-08
 -0.115220E-03  0.129320E-03  0.109180E-05
 -0.685539E-03  0.186058E-03 -0.187001E-04
 -0.129778E-02  0.639144E-03 -0.119472E-04
 -0.560390E-02  0.419994E-02 -0.976283E-04
 -0.560390E-02 -0.419994E-02  0.976283E-04
 -0.129778E-02 -0.639144E-03  0.119472E-04
 -0.685539E-03 -0.186058E-03  0.187001E-04
 -0.115220E-03 -0.129320E-03 -0.109180E-05
 -0.716743E-05 -0.133133E-04  0.574573E-08
 -0.447610E-05  0.338316E-04 -0.203948E-06
 -0.125674E-03  0.602213E-03 -0.215455E-05
 -0.227228E-02  0.334262E-02  0.205352E-05
 -0.126301E-01  0.735267E-02  0.832036E-03
 -0.229651E-01  0.105392E-01 -0.260198E-02
 -0.229651E-01 -0.105392E-01  0.260198E-02
 -0.126301E-01 -0.735267E-02 -0.832036E-03
 -0.227228E-02 -0.334262E-02 -0.205352E-05
 -0.125674E-03 -0.602213E-03  0.215455E-05
 -0.447610E-05 -0.338316E-04  0.203948E-06
  0.634043E-05  0.384407E-05  0.114056E-06
  0.179640E-03  0.270034E-03  0.241088E-04
  0.126024E-02  0.603414E-02 -0.197177E-04
 -0.446276E-02  0.225272E-01 -0.254192E-02
 -0.171501E-02  0.141594E-02  0.116791E-03
 -0.171501E-02 -0.141594E-02 -0.116791E-03
 -0.446276E-02 -0.225272E-01  0.254192E-02
  0.126024E-02 -0.603414E-02  0.197177E-04
  0.179640E-03 -0.270034E-03 -0.241088E-04
  0.634043E-05 -0.384407E-05 -0.114056E-06
 -0.634043E-05  0.384407E-05 -0.114056E-06
 -0.179640E-03  0.270034E-03 -0.241088E-04
 -0.126024E-02  0.603414E-02  0.197177E-04
  0.446276E-02  0.225272E-01  0.254192E-02
  0.171501E-02  0.141594E-02 -0.116791E-03
  0.171501E-02 -0.141594E-02  0.116791E-03
  0.446276E-02 -0.225272E-01 -0.254192E-02
 -0.126024E-02 -0.603414E-02 -0.197177E-04
 -0.179640E-03 -0.270034E-03  0.241088E-04
 -0.634043E-05 -0.384407E-05  0.114056E-06
  0.447610E-05  0.338316E-04  0.203948E-06
  0.125674E-03  0.602213E-03  0.215455E-05
  0.227228E-02  0.334262E-02 -0.205352E-05
  0.126301E-01  0.735267E-02 -0.832036E-03
  0.229651E-01  0.105392E-01  0.260198E-02
  0.229651E-01 -0.105392E-01 -0.260198E-02
  0.126301E-01 -0.735267E-02  0.832036E-03
  0.227228E-02 -0.334262E-02  0.205352E-05
  0.125674E-03 -0.602213E-03 -0.215455E-05
  0.447610E-05 -0.338316E-04 -0.203948E-06
  0.716743E-05  0.133133E-04  0.574573E-08
  0.115220E-03  0.129320E-03 -0.109180E-05
  0.685539E-03  0.186058E-03  0.187001E-04
  0.129778E-02  0.639144E-03  0.119472E-04
  0.560390E-02  0.419994E-02  0.976283E-04
  0.560390E-02 -0.419994E-02 -0.976283E-04
  0.129778E-02 -0.639144E-03 -0.119472E-04
  0.685539E-03 -0.186058E-03 -0.187001E-04
  0.115220E-03 -0.129320E-03  0.109180E-05
  0.716743E-05 -0.133133E-04 -0.574573E-08
  0.116025E-05  0.122136E-05 -0.266630E-08
  0.109981E-04  0.656762E-05 -0.705523E-07
  0.107117E-04 -0.809309E-05  0.611592E-06
  0.334710E-04  0.100777E-03 -0.838535E-05
  0.101291E-02  0.476733E-03 -0.430678E-05
  0.101291E-02 -0.476733E-03  0.430678E-05
  0.334710E-04 -0.100777E-03  0.838535E-05
  0.107117E-04  0.809309E-05 -0.611592E-06
  0.109981E-04 -0.656762E-05  0.705523E-07
  0.116025E-05 -0.122136E-05  0.266630E-08
  0.400659E-07  0.284596E-07 -0.110014E-09
  0.190647E-06  0.255320E-07 -0.189269E-08
 -0.117771E-05 -0.530575E-06  0.191719E-08
  0.107693E-04  0.932612E-05  0.677282E-07
  0.863041E-04  0.192218E-04  0.514228E-06
  0.863041E-04 -0.192218E-04 -0.514228E-06
  0.107693E-04 -0.932612E-05 -0.677282E-07
 -0.117771E-05  0.530575E-06 -0.191719E-08
  0.190647E-06 -0.255320E-07  0.189269E-08
  0.400659E-07 -0.284596E-07  0.110014E-09
 -0.550647E-07  0.390710E-07  0.117375E-09
 -0.248693E-06  0.251114E-07  0.199365E-08
  0.188056E-05 -0.874540E-06 -0.165317E-08
 -0.137224E-04  0.127013E-04 -0.460338E-07
 -0.125421E-03  0.282663E-04 -0.703108E-06
 -0.125421E-03 -0.282663E-04  0.703108E-06
 -0.137224E-04 -0.127013E-04  0.460338E-07
  0.188056E-05  0.874540E-06  0.165317E-08
 -0.248693E-06 -0.251114E-07 -0.199365E-08
 -0.550647E-07 -0.390710E-07 -0.117375E-09
 -0.159254E-05  0.167558E-05  0.292235E-08
 -0.149407E-04  0.877273E-05  0.770291E-07
 -0.835063E-05 -0.179907E-04 -0.106219E-05
  0.604678E-06  0.147583E-03  0.133760E-04
 -0.177074E-02  0.925240E-03  0.226221E-04
 -0.177074E-02 -0.925240E-03 -0.226221E-04
  0.604678E-06 -0.147583E-03 -0.133760E-04
 -0.835063E-05  0.179907E-04  0.106219E-05
 -0.149407E-04 -0.877273E-05 -0.770291E-07
 -0.159254E-05 -0.167558E-05 -0.292235E-08
 -0.990965E-05  0.184066E-04 -0.716475E-08
 -0.176469E-03  0.196062E-03  0.149746E-05
 -0.117671E-02  0.214419E-03 -0.359084E-04
 -0.148174E-02  0.609309E-03 -0.204291E-04
 -0.891451E-02  0.948692E-02 -0.133752E-03
 -0.891451E-02 -0.948692E-02  0.133752E-03
 -0.148174E-02 -0.609309E-03  0.204291E-04
 -0.117671E-02 -0.214419E-03  0.359084E-04
 -0.176469E-03 -0.196062E-03 -0.149746E-05
 -0.990965E-05 -0.184066E-04  0.716475E-08
 -0.600017E-05  0.470102E-04 -0.251129E-06
 -0.190383E-03  0.102798E-02  0.131302E-06
 -0.459769E-02  0.657813E-02  0.434471E-05
 -0.233013E-01  0.101303E-01  0.147427E-02
 -0.438274E-01  0.209617E-01 -0.581594E-02
 -0.438274E-01 -0.209617E-01  0.581594E-02
 -0.233013E-01 -0.101303E-01 -0.147427E-02
 -0.459769E-02 -0.657813E-02 -0.434471E-05
 -0.190383E-03 -0.102798E-02 -0.131302E-06
 -0.600017E-05 -0.470102E-04  0.251129E-06
  0.969101E-05  0.157021E-05  0.248227E-06
  0.352858E-03  0.329536E-03  0.386810E-04
  0.371547E-02  0.949973E-02  0.305850E-04
 -0.751165E-02  0.424376E-01 -0.565188E-02
  0.547780E-03 -0.996732E-03  0.215980E-03
  0.547780E-03  0.996732E-03 -0.215980E-03
 -0.751165E-02 -0.424376E-01  0.565188E-02
  0.371547E-02 -0.949973E-02 -0.305850E-04
  0.352858E-03 -0.329536E-03 -0.386810E-04
  0.969101E-05 -0.157021E-05 -0.248227E-06
 -0.969101E-05  0.157021E-05 -0.248227E-06
 -0.352858E-03  0.329536E-03 -0.386810E-04
 -0.371547E-02  0.949973E-02 -0.305850E-04
  0.751165E-02  0.424376E-01  0.565188E-02
 -0.547780E-03 -0.996732E-03 -0.215980E-03
 -0.547780E-03  0.996732E-03  0.215980E-03
  0.751165E-02 -0.424376E-01 -0.565188E-02
 -0.371547E-02 -0.949973E-02  0.305850E-04
 -0.352858E-03 -0.329536E-03  0.386810E-04
 -0.969101E-05 -0.157021E-05  0.248227E-06
  0.600017E-05  0.470102E-04  0.251129E-06
  0.190383E-03  0.102798E-02 -0.131302E-06
  0.459769E-02  0.657813E-02 -0.434471E-05
  0.233013E-01  0.101303E-01 -0.147427E-02
  0.438274E-01  0.209617E-01  0.581594E-02
  0.438274E-01 -0.209617E-01 -0.581594E-02
  0.233013E-01 -0.101303E-01  0.147427E-02
  0.459769E-02 -0.657813E-02  0.434471E-05
  0.190383E-03 -0.102798E-02  0.131302E-06
  0.600017E-05 -0.470102E-04 -0.251129E-06
  0.990965E-05  0.184066E-04  0.716475E-08
  0.176469E-03  0.196062E-03 -0.149746E-05
  0.117671E-02  0.214419E-03  0.359084E-04
  0.148174E-02  0.609309E-03  0.204291E-04
  0.891451E-02  0.948692E-02  0.133752E-03
  0.891451E-02 -0.948692E-02 -0.133752E-03
  0.148174E-02 -0.609309E-03 -0.204291E-04
  0.117671E-02 -0.214419E-03 -0.359084E-04
  0.176469E-03 -0.196062E-03  0.149746E-05
  0.990965E-05 -0.184066E-04 -0.716475E-08
  0.159254E-05  0.167558E-05 -0.292235E-08
  0.149407E-04  0.877273E-05 -0.770291E-07
  0.835063E-05 -0.179907E-04  0.106219E-05
 -0.604678E-06  0.147583E-03 -0.133760E-04
  0.177074E-02  0.925240E-03 -0.226221E-04
  0.177074E-02 -0.925240E-03  0.226221E-04
 -0.604678E-06 -0.147583E-03  0.133760E-04
  0.835063E-05  0.179907E-04 -0.106219E-05
  0.149407E-04 -0.877273E-05  0.770291E-07
  0.159254E-05 -0.167558E-05  0.292235E-08
  0.550647E-07  0.390710E-07 -0.117375E-09
  0.248693E-06  0.251114E-07 -0.199365E-08
 -0.188056E-05 -0.874540E-06  0.165317E-08
  0.137224E-04  0.127013E-04  0.460338E-07
  0.125421E-03  0.282663E-04  0.703108E-06
  0.125421E-03 -0.282663E-04 -0.703108E-06
  0.137224E-04 -0.127013E-04 -0.460338E-07
 -0.188056E-05  0.874540E-06 -0.165317E-08
  0.248693E-06 -0.251114E-07  0.199365E-08
  0.550647E-07 -0.390710E-07  0.117375E-09
 -0.698975E-07  0.495554E-07  0.106306E-09
 -0.303082E-06  0.223697E-07  0.178234E-08
  0.263813E-05 -0.124863E-05 -0.113623E-08
 -0.165484E-04  0.161870E-04 -0.177169E-07
 -0.169788E-03  0.386308E-04 -0.775108E-06
 -0.169788E-03 -0.386308E-04  0.775108E-06
 -0.165484E-04 -0.161870E-04  0.177169E-07
  0.263813E-05  0.124863E-05  0.113623E-08
 -0.303082E-06 -0.223697E-07 -0.178234E-08
 -0.698975E-07 -0.495554E-07 -0.106306E-09
 -0.202039E-05  0.212504E-05  0.271849E-08
 -0.189063E-04  0.109543E-04  0.714887E-07
 -0.501640E-05 -0.300085E-04 -0.133945E-05
  0.480041E-04  0.207684E-03  0.162967E-04
 -0.286951E-02  0.161950E-02  0.599322E-04
 -0.286951E-02 -0.161950E-02 -0.599322E-04
  0.480041E-04 -0.207684E-03 -0.162967E-04
 -0.501640E-05  0.300085E-04  0.133945E-05
 -0.189063E-04 -0.109543E-04 -0.714887E-07
 -0.202039E-05 -0.212504E-05 -0.271849E-08
 -0.126910E-04  0.235714E-04 -0.744999E-08
 -0.251356E-03  0.276805E-03  0.160198E-05
 -0.187516E-02  0.226032E-03 -0.583080E-04
 -0.142795E-02  0.364764E-03 -0.280781E-04
 -0.138464E-01  0.209051E-01 -0.342475E-03
 -0.138464E-01 -0.209051E-01  0.342475E-03
 -0.142795E-02 -0.364764E-03  0.280781E-04
 -0.187516E-02 -0.226032E-03  0.583080E-04
 -0.251356E-03 -0.276805E-03 -0.160198E-05
 -0.126910E-04 -0.235714E-04  0.744999E-08
 -0.755863E-05  0.608964E-04 -0.258706E-06
 -0.266845E-03  0.161540E-02  0.695212E-05
 -0.971618E-02  0.136757E-01  0.579450E-04
 -0.402934E-01  0.900786E-02  0.120868E-02
 -0.746974E-01  0.341571E-01 -0.993160E-02
 -0.746974E-01 -0.341571E-01  0.993160E-02
 -0.402934E-01 -0.900786E-02 -0.120868E-02
 -0.971618E-02 -0.136757E-01 -0.579450E-04
 -0.266845E-03 -0.161540E-02 -0.695212E-05
 -0.755863E-05 -0.608964E-04  0.258706E-06
  0.134755E-04 -0.144044E-05  0.341353E-06
  0.596179E-03  0.398249E-03  0.485797E-04
  0.877668E-02  0.139668E-01  0.220172E-03
 -0.151636E-01  0.698170E-01 -0.121799E-01
  0.106721E-01 -0.998580E-02  0.171825E-03
  0.106721E-01  0.998580E-02 -0.171825E-03
 -0.151636E-01 -0.698170E-01  0.121799E-01
  0.877668E-02 -0.139668E-01 -0.220172E-03
  0.596179E-03 -0.398249E-03 -0.485797E-04
  0.134755E-04  0.144044E-05 -0.341353E-06
 -0.134755E-04 -0.144044E-05 -0.341353E-06
 -0.596179E-03  0.398249E-03 -0.485797E-04
 -0.877668E-02  0.139668E-01 -0.220172E-03
  0.151636E-01  0.698170E-01  0.121799E-01
 -0.106721E-01 -0.998580E-02 -0.171825E-03
 -0.106721E-01  0.998580E-02  0.171825E-03
  0.151636E-01 -0.698170E-01 -0.121799E-01
 -0.877668E-02 -0.139668E-01  0.220172E-03
 -0.596179E-03 -0.398249E-03  0.485797E-04
 -0.134755E-04  0.144044E-05  0.341353E-06
  0.755863E-05  0.608964E-04  0.258706E-06
  0.266845E-03  0.161540E-02 -0.695212E-05
  0.971618E-02  0.136757E-01 -0.579450E-04
  0.402934E-01  0.900786E-02 -0.120868E-02
  0.746974E-01  0.341571E-01  0.993160E-02
  0.746974E-01 -0.341571E-01 -0.993160E-02
  0.402934E-01 -0.900786E-02  0.120868E-02
  0.971618E-02 -0.136757E-01  0.579450E-04
  0.266845E-03 -0.161540E-02  0.695212E-05
  0.755863E-05 -0.608964E-04 -0.258706E-06
  0.126910E-04  0.235714E-04  0.744999E-08
  0.251356E-03  0.276805E-03 -0.160198E-05
  0.187516E-02  0.226032E-03  0.583080E-04
  0.142795E-02  0.364764E-03  0.280781E-04
  0.138464E-01  0.209051E-01  0.342475E-03
  0.138464E-01 -0.209051E-01 -0.342475E-03
  0.142795E-02 -0.364764E-03 -0.280781E-04
  0.187516E-02 -0.226032E-03 -0.583080E-04
  0.251356E-03 -0.276805E-03  0.160198E-05
  0.126910E-04 -0.235714E-04 -0.744999E-08
  0.202039E-05  0.212504E-05 -0.271849E-08
  0.189063E-04  0.109543E-04 -0.714887E-07
  0.501640E-05 -0.300085E-04  0.133945E-05
 -0.480041E-04  0.207684E-03 -0.162967E-04
  0.286951E-02  0.161950E-02 -0.599322E-04
  0.286951E-02 -0.161950E-02  0.599322E-04
 -0.480041E-04 -0.207684E-03  0.162967E-04
  0.501640E-05  0.300085E-04 -0.133945E-05
  0.189063E-04 -0.109543E-04  0.714887E-07
  0.202039E-05 -0.212504E-05  0.271849E-08
  0.698975E-07  0.495554E-07 -0.106306E-09
  0.303082E-06  0.223697E-07 -0.178234E-08
 -0.263813E-05 -0.124863E-05  0.113623E-08
  0.165484E-04  0.161870E-04  0.177169E-07
  0.169788E-03  0.386308E-04  0.775108E-06
  0.169788E-03 -0.386308E-04 -0.775108E-06
  0.165484E-04 -0.161870E-04 -0.177169E-07
 -0.263813E-05  0.124863E-05 -0.113623E-08
  0.303082E-06 -0.223697E-07  0.178234E-08
  0.698975E-07 -0.495554E-07  0.106306E-09
 -0.819463E-07  0.580663E-07  0.747276E-10
 -0.345538E-06  0.187922E-07  0.123961E-08
  0.329022E-05 -0.157224E-05 -0.588524E-09
 -0.188372E-04  0.191573E-04  0.145872E-08
 -0.210498E-03  0.482272E-04 -0.621280E-06
 -0.210498E-03 -0.482272E-04  0.621280E-06
 -0.188372E-04 -0.191573E-04 -0.145872E-08
  0.329022E-05  0.157224E-05  0.588524E-09
 -0.345538E-06 -0.187922E-07 -0.123961E-08
 -0.819463E-07 -0.580663E-07 -0.747276E-10
 -0.236837E-05  0.249058E-05  0.195312E-08
 -0.221985E-04  0.127449E-04  0.512996E-07
 -0.188304E-05 -0.412532E-04 -0.116178E-05
  0.954661E-04  0.268827E-03  0.140060E-04
 -0.411927E-02  0.244321E-02  0.820900E-04
 -0.411927E-02 -0.244321E-02 -0.820900E-04
  0.954661E-04 -0.268827E-03 -0.140060E-04
 -0.188304E-05  0.412532E-04  0.116178E-05
 -0.221985E-04 -0.127449E-04 -0.512996E-07
 -0.236837E-05 -0.249058E-05 -0.195312E-08
 -0.150074E-04  0.278715E-04 -0.580021E-08
 -0.324161E-03  0.354534E-03  0.121692E-05
 -0.263775E-02  0.211938E-03 -0.656142E-04
 -0.114256E-02 -0.508549E-04 -0.282126E-04
 -0.210435E-01  0.410478E-01 -0.105367E-02
 -0.210435E-01 -0.410478E-01  0.105367E-02
 -0.114256E-02  0.508549E-04  0.282126E-04
 -0.263775E-02 -0.211938E-03  0.656142E-04
 -0.324161E-03 -0.354534E-03 -0.121692E-05
 -0.150074E-04 -0.278715E-04  0.580021E-08
 -0.888002E-05  0.729023E-04 -0.200109E-06
 -0.334782E-03  0.223909E-02  0.126414E-04
 -0.197783E-01  0.277794E-01  0.300479E-03
 -0.614422E-01 -0.113486E-02  0.605074E-05
 -0.104721E+00  0.337905E-01 -0.154810E-01
 -0.104721E+00 -0.337905E-01  0.154810E-01
 -0.614422E-01  0.113486E-02 -0.605074E-05
 -0.197783E-01 -0.277794E-01 -0.300479E-03
 -0.334782E-03 -0.223909E-02 -0.126414E-04
 -0.888002E-05 -0.729023E-04  0.200109E-06
  0.168953E-04 -0.429579E-05  0.307879E-06
  0.856282E-03  0.465945E-03  0.436686E-04
  0.164867E-01  0.189268E-01  0.370065E-03
 -0.421543E-01  0.787081E-01 -0.245762E-01
  0.340929E-01 -0.285778E-01 -0.120188E-03
  0.340929E-01  0.285778E-01  0.120188E-03
 -0.421543E-01 -0.787081E-01  0.245762E-01
  0.164867E-01 -0.189268E-01 -0.370065E-03
  0.856282E-03 -0.465945E-03 -0.436686E-04
  0.168953E-04  0.429579E-05 -0.307879E-06
 -0.168953E-04 -0.429579E-05 -0.307879E-06
 -0.856282E-03  0.465945E-03 -0.436686E-04
 -0.164867E-01  0.189268E-01 -0.370065E-03
  0.421543E-01  0.787081E-01  0.245762E-01
 -0.340929E-01 -0.285778E-01  0.120188E-03
 -0.340929E-01  0.285778E-01 -0.120188E-03
  0.421543E-01 -0.787081E-01 -0.245762E-01
 -0.164867E-01 -0.189268E-01  0.370065E-03
 -0.856282E-03 -0.465945E-03  0.436686E-04
 -0.168953E-04  0.429579E-05  0.307879E-06
  0.888002E-05  0.729023E-04  0.200109E-06
  0.334782E-03  0.223909E-02 -0.126414E-04
  0.197783E-01  0.277794E-01 -0.300479E-03
  0.614422E-01 -0.113486E-02 -0.605074E-05
  0.104721E+00  0.337905E-01  0.154810E-01
  0.104721E+00 -0.337905E-01 -0.154810E-01
  0.614422E-01  0.113486E-02  0.605074E-05
  0.197783E-01 -0.277794E-01  0.300479E-03
  0.334782E-03 -0.223909E-02  0.126414E-04
  0.888002E-05 -0.729023E-04 -0.200109E-06
  0.150074E-04  0.278715E-04  0.580021E-08
  0.324161E-03  0.354534E-03 -0.121692E-05
  0.263775E-02  0.211938E-03  0.656142E-04
  0.114256E-02 -0.508549E-04  0.282126E-04
  0.210435E-01  0.410478E-01  0.105367E-02
  0.210435E-01 -0.410478E-01 -0.105367E-02
  0.114256E-02  0.508549E-04 -0.282126E-04
  0.263775E-02 -0.211938E-03 -0.656142E-04
  0.324161E-03 -0.354534E-03  0.121692E-05
  0.150074E-04 -0.278715E-04 -0.580021E-08
  0.236837E-05  0.249058E-05 -0.195312E-08
  0.221985E-04  0.127449E-04 -0.512996E-07
  0.188304E-05 -0.412532E-04  0.116178E-05
 -0.954661E-04  0.268827E-03 -0.140060E-04
  0.411927E-02  0.244321E-02 -0.820900E-04
  0.411927E-02 -0.244321E-02  0.820900E-04
 -0.954661E-04 -0.268827E-03  0.140060E-04
  0.188304E-05  0.412532E-04 -0.116178E-05
  0.221985E-04 -0.127449E-04  0.512996E-07
  0.236837E-05 -0.249058E-05  0.195312E-08
  0.819463E-07  0.580663E-07 -0.747276E-10
  0.345538E-06  0.187922E-07 -0.123961E-08
 -0.329022E-05 -0.157224E-05  0.588524E-09
  0.188372E-04  0.191573E-04 -0.145872E-08
  0.210498E-03  0.482272E-04  0.621280E-06
  0.210498E-03 -0.482272E-04 -0.621280E-06
  0.188372E-04 -0.191573E-04  0.145872E-08
 -0.329022E-05  0.157224E-05 -0.588524E-09
  0.345538E-06 -0.187922E-07  0.123961E-08
  0.819463E-07 -0.580663E-07  0.747276E-10
 -0.887291E-07  0.628556E-07  0.269624E-10
 -0.368862E-06  0.163218E-07  0.444558E-09
  0.366983E-05 -0.176108E-05 -0.169136E-09
 -0.201373E-04  0.208916E-04  0.338285E-08
 -0.235403E-03  0.541369E-04 -0.239009E-06
 -0.235403E-03 -0.541369E-04  0.239009E-06
 -0.201373E-04 -0.208916E-04 -0.338285E-08
  0.366983E-05  0.176108E-05  0.169136E-09
 -0.368862E-06 -0.163218E-07 -0.444558E-09
 -0.887291E-07 -0.628556E-07 -0.269624E-10
 -0.256448E-05  0.269659E-05  0.713409E-09
 -0.240849E-04  0.137643E-04  0.187287E-07
 -0.217471E-07 -0.481376E-04 -0.464525E-06
  0.125571E-03  0.308779E-03  0.560275E-05
 -0.502082E-02  0.304497E-02  0.405821E-04
 -0.502082E-02 -0.304497E-02 -0.405821E-04
  0.125571E-03 -0.308779E-03 -0.560275E-05
 -0.217471E-07  0.481376E-04  0.464525E-06
 -0.240849E-04 -0.137643E-04 -0.187287E-07
 -0.256448E-05 -0.269659E-05 -0.713409E-09
 -0.163354E-04  0.303363E-04 -0.220892E-08
 -0.370324E-03  0.403452E-03  0.447498E-06
 -0.315976E-02  0.189361E-03 -0.305890E-04
 -0.857489E-03 -0.395615E-03 -0.125846E-04
 -0.286912E-01  0.617173E-01 -0.100282E-02
 -0.286912E-01 -0.617173E-01  0.100282E-02
 -0.857489E-03  0.395615E-03  0.125846E-04
 -0.315976E-02 -0.189361E-03  0.305890E-04
 -0.370324E-03 -0.403452E-03 -0.447498E-06
 -0.163354E-04 -0.303363E-04  0.220892E-08
 -0.964985E-05  0.799737E-04 -0.759415E-07
 -0.373749E-03  0.265740E-02  0.686768E-05
 -0.332203E-01  0.474360E-01  0.506062E-03
 -0.776279E-01 -0.157693E-01 -0.437512E-03
 -0.107990E+00  0.805812E-02 -0.840395E-02
 -0.107990E+00 -0.805812E-02  0.840395E-02
 -0.776279E-01  0.157693E-01  0.437512E-03
 -0.332203E-01 -0.474360E-01 -0.506062E-03
 -0.373749E-03 -0.265740E-02 -0.686768E-05
 -0.964985E-05 -0.799737E-04  0.759415E-07
  0.189576E-04 -0.603200E-05  0.125057E-06
  0.103116E-02  0.509494E-03  0.180592E-04
  0.231590E-01  0.226657E-01  0.185314E-03
 -0.915704E-01  0.350561E-01 -0.185669E-01
  0.602343E-01 -0.475245E-01 -0.245950E-03
  0.602343E-01  0.475245E-01  0.245950E-03
 -0.915704E-01 -0.350561E-01  0.185669E-01
  0.231590E-01 -0.226657E-01 -0.185314E-03
  0.103116E-02 -0.509494E-03 -0.180592E-04
  0.189576E-04  0.603200E-05 -0.125057E-06
 -0.189576E-04 -0.603200E-05 -0.125057E-06
 -0.103116E-02  0.509494E-03 -0.180592E-04
 -0.231590E-01  0.226657E-01 -0.185314E-03
  0.915704E-01  0.350561E-01  0.185669E-01
 -0.602343E-01 -0.475245E-01  0.245950E-03
 -0.602343E-01  0.475245E-01 -0.245950E-03
  0.915704E-01 -0.350561E-01 -0.185669E-01
 -0.231590E-01 -0.226657E-01  0.185314E-03
 -0.103116E-02 -0.509494E-03  0.180592E-04
 -0.189576E-04  0.603200E-05  0.125057E-06
  0.964985E-05  0.799737E-04  0.759415E-07
  0.373749E-03  0.265740E-02 -0.686768E-05
  0.332203E-01  0.474360E-01 -0.506062E-03
  0.776279E-01 -0.157693E-01  0.437512E-03
  0.107990E+00  0.805812E-02  0.840395E-02
  0.107990E+00 -0.805812E-02 -0.840395E-02
  0.776279E-01  0.157693E-01 -0.437512E-03
  0.332203E-01 -0.474360E-01  0.506062E-03
  0.373749E-03 -0.265740E-02  0.686768E-05
  0.964985E-05 -0.799737E-04 -0.759415E-07
  0.163354E-04  0.303363E-04  0.220892E-08
  0.370324E-03  0.403452E-03 -0.447498E-06
  0.315976E-02  0.189361E-03  0.305890E-04
  0.857489E-03 -0.395615E-03  0.125846E-04
  0.286912E-01  0.617173E-01  0.100282E-02
  0.286912E-01 -0.617173E-01 -0.100282E-02
  0.857489E-03  0.395615E-03 -0.125846E-04
  0.315976E-02 -0.189361E-03 -0.305890E-04
  0.370324E-03 -0.403452E-03  0.447498E-06
  0.163354E-04 -0.303363E-04 -0.220892E-08
  0.256448E-05  0.269659E-05 -0.713409E-09
  0.240849E-04  0.137643E-04 -0.187287E-07
  0.217471E-07 -0.481376E-04  0.464525E-06
 -0.125571E-03  0.308779E-03 -0.560275E-05
  0.502082E-02  0.304497E-02 -0.405821E-04
  0.502082E-02 -0.304497E-02  0.405821E-04
 -0.125571E-03 -0.308779E-03  0.560275E-05
  0.217471E-07  0.481376E-04 -0.464525E-06
  0.240849E-04 -0.137643E-04  0.187287E-07
  0.256448E-05 -0.269659E-05  0.713409E-09
  0.887291E-07  0.628556E-07 -0.269624E-10
  0.368862E-06  0.163218E-07 -0.444558E-09
 -0.366983E-05 -0.176108E-05  0.169136E-09
  0.201373E-04  0.208916E-04 -0.338285E-08
  0.235403E-03  0.541369E-04  0.239009E-06
  0.235403E-03 -0.541369E-04 -0.239009E-06
  0.201373E-04 -0.208916E-04  0.338285E-08
 -0.366983E-05  0.176108E-05 -0.169136E-09
  0.368862E-06 -0.163218E-07  0.444558E-09
  0.887291E-07 -0.628556E-07  0.269624E-10
 -0.887291E-07  0.628556E-07 -0.269624E-10
 -0.368862E-06  0.163218E-07 -0.444558E-09
  0.366983E-05 -0.176108E-05  0.169136E-09
 -0.201373E-04  0.208916E-04 -0.338285E-08
 -0.235403E-03  0.541369E-04  0.239009E-06
 -0.235403E-03 -0.541369E-04 -0.239009E-06
 -0.201373E-04 -0.208916E-04  0.338285E-08
  0.366983E-05  0.176108E-05 -0.169136E-09
 -0.368862E-06 -0.163218E-07  0.444558E-09
 -0.887291E-07 -0.628556E-07  0.269624E-10
 -0.256448E-05  0.269659E-05 -0.713409E-09
 -0.240849E-04  0.137643E-04 -0.187287E-07
 -0.217471E-07 -0.481376E-04  0.464525E-06
  0.125571E-03  0.308779E-03 -0.560275E-05
 -0.502082E-02  0.304497E-02 -0.405821E-04
 -0.502082E-02 -0.304497E-02  0.405821E-04
  0.125571E-03 -0.308779E-03  0.560275E-05
 -0.217471E-07  0.481376E-04 -0.464525E-06
 -0.240849E-04 -0.137643E-04  0.187287E-07
 -0.256448E-05 -0.269659E-05  0.713409E-09
 -0.163354E-04  0.303363E-04  0.220892E-08
 -0.370324E-03  0.403452E-03 -0.447498E-06
 -0.315976E-02  0.189361E-03  0.305890E-04
 -0.857489E-03 -0.395615E-03  0.125846E-04
 -0.286912E-01  0.617173E-01  0.100282E-02
 -0.286912E-01 -0.617173E-01 -0.100282E-02
 -0.857489E-03  0.395615E-03 -0.125846E-04
 -0.315976E-02 -0.189361E-03 -0.305890E-04
 -0.370324E-03 -0.403452E-03  0.447498E-06
 -0.163354E-04 -0.303363E-04 -0.220892E-08
 -0.964985E-05  0.799737E-04  0.759415E-07
 -0.373749E-03  0.265740E-02 -0.686768E-05
 -0.332203E-01  0.474360E-01 -0.506062E-03
 -0.776279E-01 -0.157693E-01  0.437512E-03
 -0.107990E+00  0.805812E-02  0.840395E-02
 -0.107990E+00 -0.805812E-02 -0.840395E-02
 -0.776279E-01  0.157693E-01 -0.437512E-03
 -0.332203E-01 -0.474360E-01  0.506062E-03
 -0.373749E-03 -0.265740E-02  0.686768E-05
 -0.964985E-05 -0.799737E-04 -0.759415E-07
  0.189576E-04 -0.603200E-05 -0.125057E-06
  0.103116E-02  0.509494E-03 -0.180592E-04
  0.231590E-01  0.226657E-01 -0.185314E-03
 -0.915704E-01  0.350561E-01  0.185669E-01
  0.602343E-01 -0.475245E-01  0.245950E-03
  0.602343E-01  0.475245E-01 -0.245950E-03
 -0.915704E-01 -0.350561E-01 -0.185669E-01
  0.231590E-01 -0.226657E-01  0.185314E-03
  0.103116E-02 -0.509494E-03  0.180592E-04
  0.189576E-04  0.603200E-05  0.125057E-06
 -0.189576E-04 -0.603200E-05  0.125057E-06
 -0.103116E-02  0.509494E-03  0.180592E-04
 -0.231590E-01  0.226657E-01  0.185314E-03
  0.915704E-01  0.350561E-01 -0.185669E-01
 -0.602343E-01 -0.475245E-01 -0.245950E-03
 -0.602343E-01  0.475245E-01  0.245950E-03
  0.915704E-01 -0.350561E-01  0.185669E-01
 -0.231590E-01 -0.226657E-01 -0.185314E-03
 -0.103116E-02 -0.509494E-03 -0.180592E-04
 -0.189576E-04  0.603200E-05 -0.125057E-06
  0.964985E-05  0.799737E-04 -0.759415E-07
  0.373749E-03  0.265740E-02  0.686768E-05
  0.332203E-01  0.474360E-01  0.506062E-03
  0.776279E-01 -0.157693E-01 -0.437512E-03
  0.107990E+00  0.805812E-02 -0.840395E-02
  0.107990E+00 -0.805812E-02  0.840395E-02
  0.776279E-01  0.157693E-01  0.437512E-03
  0.332203E-01 -0.474360E-01 -0.506062E-03
  0.373749E-03 -0.265740E-02 -0.686768E-05
  0.964985E-05 -0.799737E-04  0.759415E-07
  0.163354E-04  0.303363E-04 -0.220892E-08
  0.370324E-03  0.403452E-03  0.447498E-06
  0.315976E-02  0.189361E-03 -0.305890E-04
  0.857489E-03 -0.395615E-03 -0.125846E-04
  0.286912E-01  0.617173E-01 -0.100282E-02
  0.286912E-01 -0.617173E-01  0.100282E-02
  0.857489E-03  0.395615E-03  0.125846E-04
  0.315976E-02 -0.189361E-03  0.305890E-04
  0.370324E-03 -0.403452E-03 -0.447498E-06
  0.163354E-04 -0.303363E-04  0.220892E-08
  0.256448E-05  0.269659E-05  0.713409E-09
  0.240849E-04  0.137643E-04  0.187287E-07
  0.217471E-07 -0.481376E-04 -0.464525E-06
 -0.125571E-03  0.308779E-03  0.560275E-05
  0.502082E-02  0.304497E-02  0.405821E-04
  0.502082E-02 -0.304497E-02 -0.405821E-04
 -0.125571E-03 -0.308779E-03 -0.560275E-05
  0.217471E-07  0.481376E-04  0.464525E-06
  0.240849E-04 -0.137643E-04 -0.187287E-07
  0.256448E-05 -0.269659E-05 -0.713409E-09
  0.887291E-07  0.628556E-07  0.269624E-10
  0.368862E-06  0.163218E-07  0.444558E-09
 -0.366983E-05 -0.176108E-05 -0.169136E-09
  0.201373E-04  0.208916E-04  0.338285E-08
  0.235403E-03  0.541369E-04 -0.239009E-06
  0.235403E-03 -0.541369E-04  0.239009E-06
  0.201373E-04 -0.208916E-04 -0.338285E-08
 -0.366983E-05  0.176108E-05  0.169136E-09
  0.368862E-06 -0.163218E-07 -0.444558E-09
  0.887291E-07 -0.628556E-07 -0.269624E-10
 -0.819463E-07  0.580663E-07 -0.747276E-10
 -0.345538E-06  0.187922E-07 -0.123961E-08
  0.329022E-05 -0.157224E-05  0.588524E-09
 -0.188372E-04  0.191573E-04 -0.145872E-08
 -0.210498E-03  0.482272E-04  0.621280E-06
 -0.210498E-03 -0.482272E-04 -0.621280E-06
 -0.188372E-04 -0.191573E-04  0.145872E-08
  0.329022E-05  0.157224E-05 -0.588524E-09
 -0.345538E-06 -0.187922E-07  0.123961E-08
 -0.819463E-07 -0.580663E-07  0.747276E-10
 -0.236837E-05  0.249058E-05 -0.195312E-08
 -0.221985E-04  0.127449E-04 -0.512996E-07
 -0.188304E-05 -0.412532E-04  0.116178E-05
  0.954661E-04  0.268827E-03 -0.140060E-04
 -0.411927E-02  0.244321E-02 -0.820900E-04
 -0.411927E-02 -0.244321E-02  0.820900E-04
  0.954661E-04 -0.268827E-03  0.140060E-04
 -0.188304E-05  0.412532E-04 -0.116178E-05
 -0.221985E-04 -0.127449E-04  0.512996E-07
 -0.236837E-05 -0.249058E-05  0.195312E-08
 -0.150074E-04  0.278715E-04  0.580021E-08
 -0.324161E-03  0.354534E-03 -0.121692E-05
 -0.263775E-02  0.211938E-03  0.656142E-04
 -0.114256E-02 -0.508549E-04  0.282126E-04
 -0.210435E-01  0.410478E-01  0.105367E-02
 -0.210435E-01 -0.410478E-01 -0.105367E-02
 -0.114256E-02  0.508549E-04 -0.282126E-04
 -0.263775E-02 -0.211938E-03 -0.656142E-04
 -0.324161E-03 -0.354534E-03  0.121692E-05
 -0.150074E-04 -0.278715E-04 -0.580021E-08
 -0.888002E-05  0.729023E-04  0.200109E-06
 -0.334782E-03  0.223909E-02 -0.126414E-04
 -0.197783E-01  0.277794E-01 -0.300479E-03
 -0.614422E-01 -0.113486E-02 -0.605074E-05
 -0.104721E+00  0.337905E-01  0.154810E-01
 -0.104721E+00 -0.337905E-01 -0.154810E-01
 -0.614422E-01  0.113486E-02  0.605074E-05
 -0.197783E-01 -0.277794E-01  0.300479E-03
 -0.334782E-03 -0.223909E-02  0.126414E-04
 -0.888002E-05 -0.729023E-04 -0.200109E-06
  0.168953E-04 -0.429579E-05 -0.307879E-06
  0.856282E-03  0.465945E-03 -0.436686E-04
  0.164867E-01  0.189268E-01 -0.370065E-03
 -0.421543E-01  0.787081E-01  0.245762E-01
  0.340929E-01 -0.285778E-01  0.120188E-03
  0.340929E-01  0.285778E-01 -0.120188E-03
 -0.421543E-01 -0.787081E-01 -0.245762E-01
  0.164867E-01 -0.189268E-01  0.370065E-03
  0.856282E-03 -0.465945E-03  0.436686E-04
  0.168953E-04  0.429579E-05  0.307879E-06
 -0.168953E-04 -0.429579E-05  0.307879E-06
 -0.856282E-03  0.465945E-03  0.436686E-04
 -0.164867E-01  0.189268E-01  0.370065E-03
  0.421543E-01  0.787081E-01 -0.245762E-01
 -0.340929E-01 -0.285778E-01 -0.120188E-03
 -0.340929E-01  0.285778E-01  0.120188E-03
  0.421543E-01 -0.787081E-01  0.245762E-01
 -0.164867E-01 -0.189268E-01 -0.370065E-03
 -0.856282E-03 -0.465945E-03 -0.436686E-04
 -0.168953E-04  0.429579E-05 -0.307879E-06
  0.888002E-05  0.729023E-04 -0.200109E-06
  0.334782E-03  0.223909E-02  0.126414E-04
  0.197783E-01  0.277794E-01  0.300479E-03
  0.614422E-01 -0.113486E-02  0.605074E-05
  0.104721E+00  0.337905E-01 -0.154810E-01
  0.104721E+00 -0.337905E-01  0.154810E-01
  0.614422E-01  0.113486E-02 -0.605074E-05
  0.197783E-01 -0.277794E-01 -0.300479E-03
  0.334782E-03 -0.223909E-02 -0.126414E-04
  0.888002E-05 -0.729023E-04  0.200109E-06
  0.150074E-04  0.278715E-04 -0.580021E-08
  0.324161E-03  0.354534E-03  0.121692E-05
  0.263775E-02  0.211938E-03 -0.656142E-04
  0.114256E-02 -0.508549E-04 -0.282126E-04
  0.210435E-01  0.410478E-01 -0.105367E-02
  0.210435E-01 -0.410478E-01  0.105367E-02
  0.114256E-02  0.508549E-04  0.282126E-04
  0.263775E-02 -0.211938E-03  0.656142E-04
  0.324161E-03 -0.354534E-03 -0.121692E-05
  0.150074E-04 -0.278715E-04  0.580021E-08
  0.236837E-05  0.249058E-05  0.195312E-08
  0.221985E-04  0.127449E-04  0.512996E-07
  0.188304E-05 -0.412532E-04 -0.116178E-05
 -0.954661E-04  0.268827E-03  0.140060E-04